# vtk DataFile Version 2.0
Generated Volume Mesh
ASCII
DATASET UNSTRUCTURED_GRID
POINTS 2646 float
0.0 0.0 0.0
20.0 0.0 0.0
20.0 20.0 0.0
0.0 20.0 0.0
0.0 0.0 0.1
20.0 0.0 0.1
20.0 20.0 0.1
0.0 20.0 0.1
0.999999999999102 0.0 0.0
1.999999999998378 0.0 0.0
2.999999999996569 0.0 0.0
3.999999999993648 0.0 0.0
4.999999999990727 0.0 0.0
5.999999999987806 0.0 0.0
6.999999999984885 0.0 0.0
7.999999999982034 0.0 0.0
8.999999999983277 0.0 0.0
9.999999999984798 0.0 0.0
10.99999999998632 0.0 0.0
11.99999999998784 0.0 0.0
12.99999999998936 0.0 0.0
13.99999999999088 0.0 0.0
14.9999999999924 0.0 0.0
15.99999999999392 0.0 0.0
16.99999999999544 0.0 0.0
17.99999999999696 0.0 0.0
18.99999999999848 0.0 0.0
20.0 0.999999999999102 0.0
20.0 1.999999999998378 0.0
20.0 2.999999999996569 0.0
20.0 3.999999999993648 0.0
20.0 4.999999999990727 0.0
20.0 5.999999999987806 0.0
20.0 6.999999999984885 0.0
20.0 7.999999999982034 0.0
20.0 8.999999999983277 0.0
20.0 9.999999999984798 0.0
20.0 10.99999999998632 0.0
20.0 11.99999999998784 0.0
20.0 12.99999999998936 0.0
20.0 13.99999999999088 0.0
20.0 14.9999999999924 0.0
20.0 15.99999999999392 0.0
20.0 16.99999999999544 0.0
20.0 17.99999999999696 0.0
20.0 18.99999999999848 0.0
19.0 20.0 0.0
18.0 20.0 0.0
17.0 20.0 0.0
15.99999999999999 20.0 0.0
14.99999999999999 20.0 0.0
13.99999999999999 20.0 0.0
12.99999999999999 20.0 0.0
11.99999999999999 20.0 0.0
10.99999999999999 20.0 0.0
9.999999999999993 20.0 0.0
8.999999999999995 20.0 0.0
7.999999999999993 20.0 0.0
6.999999999999995 20.0 0.0
5.999999999999996 20.0 0.0
4.999999999999996 20.0 0.0
3.999999999999996 20.0 0.0
3.0 20.0 0.0
1.999999999999996 20.0 0.0
1.0 20.0 0.0
0.0 19.0 0.0
0.0 18.0 0.0
0.0 17.0 0.0
0.0 15.99999999999999 0.0
0.0 14.99999999999999 0.0
0.0 13.99999999999999 0.0
0.0 12.99999999999999 0.0
0.0 11.99999999999999 0.0
0.0 10.99999999999999 0.0
0.0 9.999999999999993 0.0
0.0 8.999999999999995 0.0
0.0 7.999999999999993 0.0
0.0 6.999999999999995 0.0
0.0 5.999999999999996 0.0
0.0 4.999999999999996 0.0
0.0 3.999999999999996 0.0
0.0 3.0 0.0
0.0 1.999999999999996 0.0
0.0 1.0 0.0
0.999999999999102 0.0 0.1
1.999999999998378 0.0 0.1
2.999999999996569 0.0 0.1
3.999999999993648 0.0 0.1
4.999999999990727 0.0 0.1
5.999999999987806 0.0 0.1
6.999999999984885 0.0 0.1
7.999999999982034 0.0 0.1
8.999999999983277 0.0 0.1
9.999999999984798 0.0 0.1
10.99999999998632 0.0 0.1
11.99999999998784 0.0 0.1
12.99999999998936 0.0 0.1
13.99999999999088 0.0 0.1
14.9999999999924 0.0 0.1
15.99999999999392 0.0 0.1
16.99999999999544 0.0 0.1
17.99999999999696 0.0 0.1
18.99999999999848 0.0 0.1
20.0 0.999999999999102 0.1
20.0 1.999999999998378 0.1
20.0 2.999999999996569 0.1
20.0 3.999999999993648 0.1
20.0 4.999999999990727 0.1
20.0 5.999999999987806 0.1
20.0 6.999999999984885 0.1
20.0 7.999999999982034 0.1
20.0 8.999999999983277 0.1
20.0 9.999999999984798 0.1
20.0 10.99999999998632 0.1
20.0 11.99999999998784 0.1
20.0 12.99999999998936 0.1
20.0 13.99999999999088 0.1
20.0 14.9999999999924 0.1
20.0 15.99999999999392 0.1
20.0 16.99999999999544 0.1
20.0 17.99999999999696 0.1
20.0 18.99999999999848 0.1
19.0 20.0 0.1
18.0 20.0 0.1
17.0 20.0 0.1
15.99999999999999 20.0 0.1
14.99999999999999 20.0 0.1
13.99999999999999 20.0 0.1
12.99999999999999 20.0 0.1
11.99999999999999 20.0 0.1
10.99999999999999 20.0 0.1
9.999999999999993 20.0 0.1
8.999999999999995 20.0 0.1
7.999999999999993 20.0 0.1
6.999999999999995 20.0 0.1
5.999999999999996 20.0 0.1
4.999999999999996 20.0 0.1
3.999999999999996 20.0 0.1
3.0 20.0 0.1
1.999999999999996 20.0 0.1
1.0 20.0 0.1
0.0 19.0 0.1
0.0 18.0 0.1
0.0 17.0 0.1
0.0 15.99999999999999 0.1
0.0 14.99999999999999 0.1
0.0 13.99999999999999 0.1
0.0 12.99999999999999 0.1
0.0 11.99999999999999 0.1
0.0 10.99999999999999 0.1
0.0 9.999999999999993 0.1
0.0 8.999999999999995 0.1
0.0 7.999999999999993 0.1
0.0 6.999999999999995 0.1
0.0 5.999999999999996 0.1
0.0 4.999999999999996 0.1
0.0 3.999999999999996 0.1
0.0 3.0 0.1
0.0 1.999999999999996 0.1
0.0 1.0 0.1
0.0 0.0 0.01999999999995601
0.0 0.0 0.0399999999998959
0.0 0.0 0.0599999999998943
0.0 0.0 0.07999999999994742
20.0 0.0 0.01999999999995601
20.0 0.0 0.0399999999998959
20.0 0.0 0.0599999999998943
20.0 0.0 0.07999999999994742
20.0 20.0 0.01999999999995601
20.0 20.0 0.0399999999998959
20.0 20.0 0.0599999999998943
20.0 20.0 0.07999999999994742
0.0 20.0 0.01999999999995601
0.0 20.0 0.0399999999998959
0.0 20.0 0.0599999999998943
0.0 20.0 0.07999999999994742
0.999999999999147 0.999999999999955 0.0
0.9999999999991918 1.999999999999916 0.0
0.9999999999992367 2.999999999999829 0.0
0.9999999999992815 3.999999999999678 0.0
0.9999999999993263 4.999999999999535 0.0
0.9999999999993713 5.999999999999385 0.0
0.9999999999994164 6.999999999999237 0.0
0.9999999999994611 7.999999999999095 0.0
0.9999999999995062 8.999999999999158 0.0
0.999999999999551 9.999999999999236 0.0
0.999999999999596 10.99999999999931 0.0
0.9999999999996407 11.99999999999939 0.0
0.9999999999996858 12.99999999999946 0.0
0.9999999999997308 13.99999999999953 0.0
0.9999999999997753 14.99999999999961 0.0
0.9999999999998204 15.99999999999969 0.0
0.9999999999998653 16.99999999999977 0.0
0.9999999999999102 17.99999999999985 0.0
0.999999999999955 18.99999999999992 0.0
1.999999999998458 0.9999999999999103 0.0
1.999999999998539 1.999999999999834 0.0
1.999999999998621 2.999999999999657 0.0
1.999999999998701 3.999999999999361 0.0
1.999999999998782 4.999999999999068 0.0
1.999999999998863 5.999999999998779 0.0
1.999999999998944 6.999999999998483 0.0
1.999999999999025 7.999999999998196 0.0
1.999999999999106 8.99999999999832 0.0
1.999999999999187 9.999999999998472 0.0
1.999999999999268 10.99999999999863 0.0
1.999999999999349 11.99999999999878 0.0
1.99999999999943 12.99999999999893 0.0
1.999999999999511 13.99999999999907 0.0
1.999999999999592 14.99999999999923 0.0
1.999999999999672 15.99999999999939 0.0
1.999999999999754 16.99999999999954 0.0
1.999999999999834 17.99999999999969 0.0
1.999999999999915 18.99999999999985 0.0
2.999999999996741 0.9999999999998653 0.0
2.999999999996913 1.999999999999754 0.0
2.999999999997084 2.999999999999486 0.0
2.999999999997256 3.999999999999044 0.0
2.999999999997427 4.999999999998607 0.0
2.999999999997598 5.999999999998168 0.0
2.99999999999777 6.999999999997728 0.0
2.999999999997941 7.999999999997296 0.0
2.999999999998114 8.999999999997488 0.0
2.999999999998284 9.999999999997716 0.0
2.999999999998456 10.99999999999794 0.0
2.999999999998628 11.99999999999817 0.0
2.999999999998799 12.9999999999984 0.0
2.999999999998971 13.99999999999862 0.0
2.999999999999142 14.99999999999885 0.0
2.999999999999313 15.99999999999908 0.0
2.999999999999485 16.99999999999931 0.0
2.999999999999657 17.99999999999953 0.0
2.999999999999828 18.99999999999977 0.0
3.999999999993964 0.9999999999998204 0.0
3.999999999994283 1.999999999999672 0.0
3.9999999999946 2.999999999999314 0.0
3.999999999994917 3.999999999998726 0.0
3.999999999995235 4.999999999998141 0.0
3.999999999995553 5.999999999997558 0.0
3.999999999995869 6.999999999996973 0.0
3.999999999996187 7.999999999996401 0.0
3.999999999996505 8.999999999996648 0.0
3.999999999996822 9.999999999996955 0.0
3.99999999999714 10.99999999999726 0.0
3.999999999997456 11.99999999999756 0.0
3.999999999997774 12.99999999999786 0.0
3.999999999998092 13.99999999999817 0.0
3.999999999998409 14.99999999999847 0.0
3.999999999998727 15.99999999999878 0.0
3.999999999999044 16.99999999999908 0.0
3.999999999999361 17.99999999999939 0.0
3.999999999999678 18.99999999999969 0.0
4.999999999991191 0.9999999999997755 0.0
4.999999999991652 1.999999999999592 0.0
4.999999999992117 2.999999999999143 0.0
4.999999999992581 3.99999999999841 0.0
4.999999999993044 4.99999999999768 0.0
4.999999999993507 5.999999999996948 0.0
4.999999999993971 6.999999999996218 0.0
4.999999999994435 7.999999999995502 0.0
4.999999999994898 8.999999999995817 0.0
4.999999999995362 9.999999999996195 0.0
4.999999999995826 10.99999999999658 0.0
4.999999999996289 11.99999999999696 0.0
4.999999999996753 12.99999999999733 0.0
4.999999999997216 13.99999999999771 0.0
4.99999999999768 14.99999999999809 0.0
4.999999999998142 15.99999999999848 0.0
4.999999999998607 16.99999999999886 0.0
4.999999999999069 17.99999999999923 0.0
4.999999999999532 18.99999999999962 0.0
5.999999999988415 0.9999999999997308 0.0
5.999999999989027 1.999999999999511 0.0
5.999999999989636 2.999999999998971 0.0
5.999999999990243 3.999999999998092 0.0
5.999999999990854 4.999999999997215 0.0
5.999999999991464 5.99999999999634 0.0
5.999999999992072 6.999999999995461 0.0
5.999999999992681 7.999999999994603 0.0
5.999999999993292 8.99999999999498 0.0
5.999999999993901 9.999999999995435 0.0
5.99999999999451 10.99999999999589 0.0
5.999999999995119 11.99999999999634 0.0
5.999999999995731 12.9999999999968 0.0
5.999999999996339 13.99999999999726 0.0
5.999999999996948 14.99999999999771 0.0
5.999999999997558 15.99999999999817 0.0
5.999999999998169 16.99999999999863 0.0
5.999999999998778 17.99999999999908 0.0
5.999999999999385 18.99999999999955 0.0
6.999999999985641 0.9999999999996855 0.0
6.999999999986395 1.99999999999943 0.0
6.999999999987152 2.9999999999988 0.0
6.999999999987908 3.999999999997774 0.0
6.999999999988663 4.999999999996753 0.0
6.999999999989418 5.999999999995731 0.0
6.999999999990174 6.999999999994707 0.0
6.99999999999093 7.999999999993706 0.0
6.999999999991685 8.999999999994142 0.0
6.99999999999244 9.999999999994674 0.0
6.999999999993195 10.99999999999521 0.0
6.999999999993952 11.99999999999574 0.0
6.999999999994706 12.99999999999627 0.0
6.999999999995461 13.9999999999968 0.0
6.999999999996219 14.99999999999733 0.0
6.999999999996972 15.99999999999787 0.0
6.999999999997728 16.9999999999984 0.0
6.999999999998485 17.99999999999894 0.0
6.999999999999239 18.99999999999947 0.0
7.999999999982932 0.999999999999641 0.0
7.999999999983829 1.999999999999349 0.0
7.999999999984725 2.999999999998627 0.0
7.999999999985626 3.999999999997457 0.0
7.999999999986523 4.999999999996289 0.0
7.99999999998742 5.999999999995119 0.0
[...]
POINT_DATA 2646
SCALARS stress11 float
LOOKUP_TABLE default
-483.64693808183074
-582.2989179082215
-469.25857247336535
-496.6729066558182
519.1187686473131
458.37032370455563
530.8756422475853
474.4768380988389
-378.9494451135397
-549.3621969372034
-802.6797766759992
-1082.772438172251
-1393.8415626380593
-1696.704150006175
-1924.2308996357024
-2134.017107054591
-2286.287336304784
-2309.8728939462453
-2291.2554973326623
-2123.8643763288856
-1940.2248357012868
-1670.2991321496665
-1387.8062123786658
-1082.6509505398571
-823.9547716118395
-582.3545696996152
-384.96403043717146
-418.84751579351723
-604.2828997708857
-841.7348229475319
-1154.3345529288054
-1481.3828347325325
-1779.0434918310493
-2036.8135694181547
-2263.7473637461662
-2378.7330733975396
-2441.3901271866634
-2392.447251544334
-2239.0317264022306
-2045.8394110659137
-1765.4986900608055
-1444.035771429073
-1142.541942324955
-831.98763585696
-585.3113968023099
-359.7366747101769
-372.2769759640796
-549.4502540975809
-817.6700695001055
-1089.706924545113
-1407.7824245849624
-1680.2907879101112
-1937.9906051531434
-2143.588284386322
-2296.8654464464635
-2301.2096208631992
-2262.8008510367945
-2168.3309486377984
-1917.6815770799294
-1659.6605789549649
-1397.3348135631531
-1106.8574822675437
-805.708579344675
-559.4115415066481
-379.4680206812918
-384.8942180592567
-559.6070440020412
-805.7703506555408
-1125.9448688011616
-1457.553918434307
-1809.9860032144934
-2057.535588370636
-2261.879888869822
-2386.326440507546
-2454.869532281533
-2388.565741142258
-2252.2524789236486
-2032.7498682253063
-1812.0042710769922
-1478.1214662250131
-1174.2297175619751
-860.2528720330447
-560.5333214215934
-377.18033768609166
364.5968948379159
539.5728164762259
791.5862003508955
1115.5959611684084
1398.2439125012606
1706.4532582368702
1961.344350259751
2148.231349522248
2273.101296151057
2321.5433240626007
2253.4494807887822
2179.144615514204
2003.4256442356855
1708.5537063330412
1430.24129675515
1108.1464223824441
799.5598421338946
515.199195722118
395.59718939103186
374.71372754871845
557.4872153159231
834.7381191048771
1139.3501925170422
1475.943295251578
1799.815849300474
2081.190282872878
2254.739240873605
2389.349043412134
2450.060390376486
2411.3846002565697
2287.8962660059333
2074.1029164791107
1783.591975465417
1471.7717872476205
1153.3876300817356
808.4854979966767
538.7237965154927
397.5433318419382
369.47521800134564
582.2232691217214
818.329001939157
1087.1959567144513
1408.4940615640953
1703.0866044634022
1977.2866513952613
2154.7815701719373
2210.232671074569
2327.1084932358935
2270.7018383815885
2122.953752949834
1993.9115307070315
1748.3538296017796
1399.13121191971
1073.2471717018634
770.4974871389568
556.1690752729774
356.4708067011088
379.1773239839822
542.3537393659353
832.1114146485925
1174.2588232588023
1496.3061584737152
1768.5355961062014
2030.4993762746453
2230.4790674708784
2412.600300749764
2427.0098410565406
2396.351521337405
2273.702177837491
2051.8502224460244
1738.2743657436222
1470.0793451555073
1144.6901311967522
856.1873299684376
576.2413478642702
364.0662290453911
-281.601898599416
-82.09119782969356
116.68940130993724
316.5124944448471
-371.56829325295985
-163.96501150541008
42.3383392971009
249.17948199622333
-267.9543486344337
-69.08591517512104
129.14485722922836
328.55065512808505
-300.579741159454
-107.18589535169303
85.27495208196342
278.58727235905826
-503.5756747275591
-981.747859524563
-1784.43053785339
-2710.3130268901587
-3703.9779600370675
-4621.25440405868
-5429.144133696333
-6048.711563555524
-6406.3183669205755
-6549.170822311193
-6406.977901669219
-6033.949399001896
-5428.643667336553
-4621.651510745287
-3693.8328715860844
-2714.9922993332148
-1783.4773245807737
-992.0596359185874
-535.1701424028724
-976.7493346724659
-960.4299272596836
-1259.5036637447774
-1694.8955996632576
-2227.7437955103815
-2790.7054659985006
-3333.4373758994043
-3755.6792475767434
-4015.3839814662933
-4153.512646278366
-4036.2759792972356
-3776.9556197915226
-3311.131293974817
-2807.6629808265716
-2250.6922890394926
-1698.5008915122598
-1265.8663789425045
-943.5258316621184
-976.3904491104186
-1751.205168588087
-1263.3581135962158
-1231.8789508752525
-1262.6483447495848
-1465.0290408488363
-1786.2299828343093
-2152.2469418700784
-2489.326189460233
-2717.520145088434
-2789.343322703615
-2718.539785062894
-2481.159595316276
-2143.575208686292
-1765.5370148513466
-1484.086188070476
-1279.0777127370238
-1245.6178424302489
-1250.428632201627
-1762.446824433282
-2646.168599786237
-1653.9137448016554
-1238.2071603219956
-777.8188232313842
-480.22034648805857
-390.1657907888293
-488.51699806563556
-654.1804185807705
-801.3111384473741
-863.7757158502936
-791.1566170733422
-654.6583284903318
-489.73548224940896
-374.1439734529704
-482.44954554736614
-781.5063821412623
-1248.3673992082477
-1646.1846996676177
-2655.031339854002
-3631.7781247925013
-2175.5384461395442
-1435.3780221156776
-460.2133047506213
392.6097134333104
1049.7463590726256
1343.8135522957891
1368.0514281298965
1334.6518358234316
1299.8120688218623
1316.4903107266873
1386.024081563577
1347.6617043092847
1055.6851323265582
402.56696890853345
-445.2401112150401
-1430.572947634384
-2178.317619238049
-3624.3767854031175
-4533.594983872026
-2710.298053469509
-1721.9476391319185
-326.40264028683305
1065.7950970958918
2455.9071097839624
3427.2303896322846
3842.598600657657
3956.2539355885237
3895.7218114640564
3957.4788438323885
3839.3303712159395
3430.0542125273496
2456.874187041074
1081.1290420424193
-337.7765492834151
-1723.6238630227745
-2718.8931648619473
-4540.671831134707
-5326.989042652771
-3232.692480990663
-2067.9609336964786
-425.6014551129192
1372.5449402164668
3453.860847517848
5551.892821509391
6877.263232594356
7172.0674990825355
7438.495677188039
7156.7584731429815
6885.404600460082
5565.616771694273
3445.544880302623
1402.7731220964342
-422.08515251241624
-2086.6674931477755
-3250.626570895314
-5310.712886929512
-5916.175550805405
-3649.4700327403843
-2381.8242356013507
-577.2879255283624
1465.5581328812987
3921.5830095093697
6904.073696212843
10213.522904708982
11885.850888136774
11223.88816889003
11866.886551532894
10243.596771128476
6923.534361880273
3903.047611625865
1472.9810777641833
-566.9151057843119
-2382.75565824192
-3648.5942486627027
-5901.401987190358
-6277.427457857877
-3925.176561526954
-2613.0738000795245
-711.6868704203516
1439.4615169037133
4033.7471885569394
7224.516392216086
11963.750266792253
17949.693006342277
21770.90214944631
17966.288302581757
11929.229616228491
7249.924390894361
4034.18018638622
1432.6253680307418
-695.2657784866169
-2585.738725054078
-3915.8590022521093
-6277.1509970212355
-6399.950619498268
-4012.445953492075
-2664.4502039086074
-765.7903483100235
1392.8469601646066
4005.9753840696067
7568.444210927933
11313.817588683218
21800.84324479103
24641.271001588553
21786.519794803113
11324.742652475834
7541.257421198301
4003.3900868762285
1400.2440917855129
-776.1983191194013
-2708.0759262926877
-4011.0787746831775
-6397.202937289141
-6273.047420695424
-3919.3588158637285
-2628.330994559452
-711.9584553949535
1431.9213409759104
4040.979805085808
7238.536543883383
11929.120320899412
17940.39533329755
21789.51393215172
17960.383361330256
11901.3395891916
7232.292158976197
4040.0622062329203
1438.6067263428122
-707.3661997225136
-2613.9796245647594
-3934.8413488790393
-6249.8254308681935
-5937.0479867924005
-3655.5143017228693
-2376.3248051069677
-548.8872548881918
1462.079000717029
3895.202457141131
6913.761442448944
10213.159799676389
11894.431661035866
11215.815377727151
11886.274023431353
10211.668942718767
6910.550823658705
3934.0199562460184
1472.7573949331418
-570.8042557155713
-2406.5071173645556
-3630.5593997789547
-5909.233929157257
-5335.2688324879855
-3215.4889124836773
-2087.6589289624244
-413.1836461555213
1389.3995241858065
3464.8180489316583
5565.27033828944
6860.375925395638
7178.088137822226
7446.610587498173
7136.593483463861
6884.428184621967
5564.448646211997
3466.1105761472136
1392.116413476877
-412.25814208667725
-2074.376749722287
-3252.5714738881215
-5321.263623193838
-4534.278405914083
-2706.1751846130937
-1708.2652747835964
-342.11816974915564
1071.5495527591556
2449.8749724980444
3432.7793850637972
3830.836159025319
3936.0453639980406
3899.1109666749835
3953.254364259541
3828.04049054347
3438.36507325992
2460.1837942665443
1069.8442625096068
-331.11595537513494
-1723.7777953040786
-2702.3893512897193
-4552.29977949243
-3612.27503365092
-2178.3868126068264
-1441.2260121665895
-468.4801365993917
407.9583030138165
1028.4966372232884
1326.1206752434373
1372.3493892019615
1319.901552409865
1320.5593841737136
1325.8806337313727
1403.2418682547286
1310.9386798879132
1038.5851741377264
421.0656076585874
-469.9784227977507
-1436.6501740138046
-2176.129391061142
-3621.2089643063955
-2660.2792742326856
-1643.0703525673598
-1242.4414411261678
-759.19205570966
-474.76436540298164
-388.4137598462403
-469.2734739892185
-655.0725717805326
-787.7223142907023
-878.4986810320988
-815.1096314070746
-652.2991672400385
-466.1143120992929
-403.9299416318536
-497.64344450691715
-753.5604107538238
-1249.8100570170209
-1663.6310284249485
-2661.698229817208
-1761.012317692861
-1263.0929105114192
-1221.0235325228423
-1260.3559249211103
-1478.4016498606652
-1797.4005983173847
-2151.1959508834407
-2492.374738561921
-2732.503977993503
-2797.344818059355
-2735.995186031796
-2495.071307222359
-2137.3879880337045
-1797.1753553412855
-1476.9636500431225
-1262.5238024420105
-1239.4016486932524
-1257.531238370575
-1740.4201247505844
-963.5629853233695
-948.8674657382071
-1262.3018474373966
-1719.5161663535982
-2223.690641067922
-2800.443809889257
-3335.9940511686727
-3772.4216978689656
-4031.5822870479897
-4143.62679435499
-4027.595332778059
-3759.804913192056
-3343.414901666343
-2815.068238394335
-2207.4438212071545
-1688.1759249130264
-1294.3634012923576
-922.364510148298
-1001.3781799252611
-516.9610827956349
-984.6162452101707
-1783.0577567052096
-2723.947928154841
-3694.422631898895
-4644.150735812262
-5434.86224824097
-6026.434693121351
-6440.060454821214
-6558.661504472606
-6432.092790802941
-6047.719171253033
-5416.454650855623
-4628.206303007435
-3697.8910636198707
-2718.9260289110243
-1787.4677276180591
-987.4275103739928
-552.5722691210685
513.6587576344609
981.5622501205653
1772.154456462711
2715.817775860429
3703.950649606064
4615.639010569081
5416.06556831114
6047.217723574489
6425.654184406623
6563.728779800236
6411.870511043817
6050.781267443672
5428.42439711839
4628.361561959609
3689.2286820095032
2721.982209773734
1788.4526854082942
999.4540087673813
525.3728714436293
967.824871648103
961.8426326662302
1259.3654068093747
1701.737418603152
2226.9455866627395
2805.725770968944
3331.1041123922914
3763.8492379616946
4023.476092584431
4140.093323893845
4047.6008943766356
3777.014903916046
3326.6560925357044
2801.2149649634957
2254.6343429498374
1701.3652578145266
1262.3509251438081
946.9370537716895
999.0147435199469
1760.0859204679728
1250.526780916378
1236.9618901312351
1276.7880528848618
1474.7544403113425
1770.5696330908686
2156.4067436233163
2490.727280676365
2739.3980049304664
2792.8270191755146
2721.653854271397
2486.1079943012446
2157.76853678748
1773.277706824243
1488.8709600791335
1282.738994780928
1238.6747723966837
1265.853754594922
1763.7914303205907
2659.400032695383
1688.0686271339655
1227.6815438773483
769.3488231617957
488.35773970000446
399.79811723157763
478.7428094856441
669.5458681527525
808.0203695800155
854.5764505695552
794.9154015034437
638.1065373234451
484.14523825235665
374.7390554174781
484.0301106609404
752.9287484660745
1246.771852016449
1648.0399608053267
2648.2178526502103
3611.0540302898735
2162.7185271047056
1414.2950788140297
451.76023471169174
-385.13130274787545
-1047.8540239278227
-1329.1828865036368
-1398.1821568515152
-1322.6059056073427
-1311.3160930555314
-1329.7384717017412
-1380.495797690004
-1332.7860881648958
-1033.3967356141657
-412.69136217981577
464.82309803180397
1438.1748544406146
2185.36125455983
3632.0283876135945
4551.727384759113
2712.240492304787
1711.5824982915074
343.0698776245117
-1053.1094513889402
-2452.8499381691217
-3427.024908432737
-3859.6298167668283
-3959.6874353084713
-3891.220262378454
-3961.9625848215073
-3831.449802616611
-3425.8999117277563
-2462.766991727054
-1092.651604630053
340.9876288380474
1714.8212156295776
2721.7938522696495
4520.633496487513
5331.133942468092
3233.539583498612
2083.454685151577
425.2768004555255
-1386.7203796617687
-3442.919075012207
-5554.335971493274
-6847.952001987025
-7168.4938862565905
-7437.038551328704
-7174.654859894887
-6883.435940220952
-5557.4467398468405
-3469.055890288204
-1390.5775774903595
414.85442725755274
2082.5030772974715
3237.3440761659294
5324.913187487051
5908.559109870344
3645.0850416552275
2392.39795993641
575.0921892300248
-1461.6219977010041
-3904.930275382474
-6908.263674067333
-10231.065469477326
-11876.638210868463
-11220.13457156904
-11875.877505557612
-10238.876406662166
-6920.942362304777
-3896.9216957818717
-1464.5050678690895
573.3573312293738
2394.2575837057084
3651.704732576385
5904.276796123013
6282.477810855955
3920.4320087004453
2618.576446402818
709.8712950553745
-1418.6390489209443
-4025.082082817331
-7232.8467449732125
-11944.115464368835
-17957.282457049936
-21774.750582862645
-17925.69674138911
-11927.683294836432
-7233.670497121289
-4031.811496242881
-1433.2481830548495
699.4472117032856
2608.5140906730667
3933.284413798712
6271.909323826432
6413.515238119289
4032.1529917959124
2671.2810917645693
793.5880731176585
-1421.328798469156
-4013.539048023522
-7544.594850094989
-11310.323693700135
-21816.24081584625
-24680.661457870156
-21804.522343731485
-11306.824994049035
-7526.982419864275
-4005.428439518437
-1406.439951742068
772.5200755251572
2710.827785562724
4024.8889612583444
6391.477513540536
6283.504319017753
3924.96893231757
2611.5007375311106
714.5257269181311
-1425.4838582072407
-4038.2564849480987
-7243.750875651836
-11930.428038096055
-17938.30840759538
-21764.15819037333
-17937.25850738678
-11946.640928642824
-7209.463212818839
-4039.0855133095756
-1451.7755598966032
717.3587530516088
2611.6778893768787
3927.0998502178118
6288.809863657691
5913.60020458512
3662.9741957057267
2387.352064099163
553.2590004242957
-1459.8089911602437
-3901.4736887644976
-6927.932961052284
-10218.340933371335
-11882.443597447127
-11222.97105643712
-11886.588385742158
-10209.723573845811
-6910.2573069464415
-3906.451870909892
-1455.8313307911158
560.5018068440259
2419.559825696051
3649.74013314303
5910.060756164603
5318.799162294716
3237.7363093048334
2096.0705781858414
418.9180530831218
-1396.5606596209109
-3472.900113498792
-5547.969635814428
-6882.7782425601035
-7149.625366713852
-7449.665086579509
-7132.334788276814
-6882.739474706352
-5558.4747159760445
-3475.8791375244036
-1381.7411482986063
402.45732090529054
2081.7039158307016
3232.5263172322884
5306.555007155985
4532.945497058332
2709.2572827432305
1715.8254306465387
338.17219940945506
-1037.2786503899843
-2448.3161220028996
-3430.299726705998
-3821.27681033127
-3945.8138200687245
-3882.142609730363
-3960.323481175117
-3825.633499593474
-3437.874020432122
-2444.862204517238
-1067.6628740718588
347.44794362410903
1704.6412319224328
2707.742872100789
4558.148386766668
3621.254978599027
2164.0469825733453
1441.07159306854
451.86754360049963
-413.3973398115486
-1038.0484412238002
-1326.4171675499529
-1388.276883165352
-1329.6071994127706
-1309.9979892335832
-1317.707569479011
-1415.1390011115
-1336.9159085685387
-1025.4775782255456
-406.6646364592016
451.1561710042879
1442.290169422049
2168.148021894507
3641.576292624697
2663.326693955809
1669.071807872504
1241.7117494549602
764.4534422196448
470.74817456305027
396.5761617217213
479.02325725741684
664.72120369412
804.2000233251601
869.2066041380167
818.9061533510685
650.3661769507453
494.53864120692015
389.2721168361604
490.5508618094027
771.6000534244813
1247.2078587673604
1651.7217844990082
2652.931759579573
1747.7313179019839
1228.9600232150406
1228.0501282792538
1267.0450709778816
1494.1193978190422
1795.0440950822085
2152.9758249772713
2513.931514396332
2719.023119771853
2809.4177772356197
2723.1253698104993
2502.060512454249
2161.9723723754287
1789.5785276801325
1473.7787297535688
1268.4706718055531
1246.9666557358578
1241.216451972723
1748.1471607726999
951.5846335608512
935.9252594001591
1290.7763364724815
1713.2553195282817
2223.2843011282384
2802.193379813805
3329.6382631799206
3772.3835817631334
4035.6064968695864
4157.73001242429
4016.9859578572214
3779.4387086359784
3322.97595243901
2811.9650595556013
2218.3494682949968
1695.5276390993968
1275.0720965294167
958.4206396793015
981.6806292142719
525.6807957813144
1011.8808489628136
1765.8176014274359
2727.834650821984
3706.1299610156566
4631.61917225644
5434.862597523257
6041.230638408102
6428.80986814294
6550.420389927924
6446.484265632927
6041.982724032365
5410.321368358098
4649.580407218542
3689.531479693018
2717.615130634047
1789.7531383112073
997.2134997821413
534.8357893854845
-226.66490955650806
-79.60794623568654
65.67062415927649
212.6036379635334
-326.2018372900784
-110.96041539683938
101.57757817581296
316.69318317994475
-475.8886786457151
-160.89895416982472
150.06100288406014
464.9699559137225
-632.8963056616485
-199.0544421505183
229.59489683061838
664.2159789726138
-821.3339017629623
-270.0278894845396
274.11211172118783
825.5444811470807
-999.0498746838421
-327.2027241811156
335.98450163938105
1008.1595892738551
-1127.959691716358
-361.19981044344604
395.8007835820317
1163.4266583621502
-1255.514581952244
-410.025776585564
424.2366768941283
1269.7333061601967
-1350.8051422331482
-450.4811013136059
437.8332240656018
1337.998568939045
-1360.3888337798417
-446.25043979659677
456.06809930689633
1370.833458447829
-1358.5080538447946
-460.9834932666272
424.4127054717392
1321.5317517574877
-1242.2350847534835
-393.19490554742515
445.13326288945973
1295.3001189362258
-1132.1846075933427
-353.85219813138247
414.64326825737953
1193.7947494611144
-977.5297130737454
-310.4913256485015
347.8892177566886
1015.2217214014381
-810.8569488096982
-254.77356036566198
294.5320676546544
851.5353041123599
-633.9440601300448
-201.41537212952971
225.73429496400058
658.6697634439915
-490.9748906753957
-170.00565130449831
146.76824216730893
467.3633282277733
-356.40779459849
-138.892648242414
75.36261022090912
291.6572865843773
-225.88433512113988
-71.83006995543838
80.75371251441538
235.39549609832466
-256.16000933386385
-99.01344246417284
56.14396184310317
212.8723079226911
-366.0758690368384
-136.10708452388644
90.91727284528315
320.3572268169373
-498.584546757862
-167.1943149343133
160.21519309282303
491.6181918345392
-684.2690139487386
-230.75132244452834
217.0062133707106
670.1172824949026
-875.2332739699632
-290.5280552059412
286.7057937365025
870.875307450071
-1046.1717294808477
-339.0503599792719
359.3704992122948
1066.656086154282
-1193.880801212974
-380.4867841890082
423.06748263631016
1237.093562277034
-1338.062504099682
-445.2453991258517
436.3724473901093
1329.144642743282
-1401.8244371786714
-459.7443115748465
470.4716229541227
1412.5298237530515
-1439.3372975466773
-472.855631724
481.5384105332196
1448.030290748924
-1409.0482673998922
-460.2318222858012
477.0546892276034
1426.5957227582112
-1312.5394481867552
-418.52074296586215
464.7388967750594
1359.6599190803245
-1202.3619781052694
-388.4543194491416
415.52747409045696
1229.842752869241
-1039.0557530405931
-338.0275975149125
354.52755413157865
1056.0983332316391
-847.1901462366804
-271.2424591355957
297.7539065624587
874.1331554022618
-672.8663933174685
-219.27135329600424
228.96743884310126
682.9526678929105
-495.81688526785
-171.44447312806733
148.83386221295223
472.92292711301707
-354.27245038351975
-131.55128525733016
88.01468150969595
309.7107781153172
-205.4760382383829
-56.09369209688157
91.88863631302956
241.9611763501889
-220.12806940614246
-73.34295259916689
71.51840097090462