# vtk DataFile Version 2.0
Generated Volume Mesh
ASCII
DATASET UNSTRUCTURED_GRID
POINTS 2205 float
0.0 0.0 0.0
20.0 0.0 0.0
20.0 20.0 0.0
0.0 20.0 0.0
0.0 0.0 0.1
20.0 0.0 0.1
20.0 20.0 0.1
0.0 20.0 0.1
0.999999999999102 0.0 0.0
1.999999999998378 0.0 0.0
2.999999999996569 0.0 0.0
3.999999999993648 0.0 0.0
4.999999999990727 0.0 0.0
5.999999999987806 0.0 0.0
6.999999999984885 0.0 0.0
7.999999999982034 0.0 0.0
8.999999999983277 0.0 0.0
9.999999999984798 0.0 0.0
10.99999999998632 0.0 0.0
11.99999999998784 0.0 0.0
12.99999999998936 0.0 0.0
13.99999999999088 0.0 0.0
14.9999999999924 0.0 0.0
15.99999999999392 0.0 0.0
16.99999999999544 0.0 0.0
17.99999999999696 0.0 0.0
18.99999999999848 0.0 0.0
20.0 0.999999999999102 0.0
20.0 1.999999999998378 0.0
20.0 2.999999999996569 0.0
20.0 3.999999999993648 0.0
20.0 4.999999999990727 0.0
20.0 5.999999999987806 0.0
20.0 6.999999999984885 0.0
20.0 7.999999999982034 0.0
20.0 8.999999999983277 0.0
20.0 9.999999999984798 0.0
20.0 10.99999999998632 0.0
20.0 11.99999999998784 0.0
20.0 12.99999999998936 0.0
20.0 13.99999999999088 0.0
20.0 14.9999999999924 0.0
20.0 15.99999999999392 0.0
20.0 16.99999999999544 0.0
20.0 17.99999999999696 0.0
20.0 18.99999999999848 0.0
19.0 20.0 0.0
18.0 20.0 0.0
17.0 20.0 0.0
15.99999999999999 20.0 0.0
14.99999999999999 20.0 0.0
13.99999999999999 20.0 0.0
12.99999999999999 20.0 0.0
11.99999999999999 20.0 0.0
10.99999999999999 20.0 0.0
9.999999999999993 20.0 0.0
8.999999999999995 20.0 0.0
7.999999999999993 20.0 0.0
6.999999999999995 20.0 0.0
5.999999999999996 20.0 0.0
4.999999999999996 20.0 0.0
3.999999999999996 20.0 0.0
3.0 20.0 0.0
1.999999999999996 20.0 0.0
1.0 20.0 0.0
0.0 19.0 0.0
0.0 18.0 0.0
0.0 17.0 0.0
0.0 15.99999999999999 0.0
0.0 14.99999999999999 0.0
0.0 13.99999999999999 0.0
0.0 12.99999999999999 0.0
0.0 11.99999999999999 0.0
0.0 10.99999999999999 0.0
0.0 9.999999999999993 0.0
0.0 8.999999999999995 0.0
0.0 7.999999999999993 0.0
0.0 6.999999999999995 0.0
0.0 5.999999999999996 0.0
0.0 4.999999999999996 0.0
0.0 3.999999999999996 0.0
0.0 3.0 0.0
0.0 1.999999999999996 0.0
0.0 1.0 0.0
0.999999999999102 0.0 0.1
1.999999999998378 0.0 0.1
2.999999999996569 0.0 0.1
3.999999999993648 0.0 0.1
4.999999999990727 0.0 0.1
5.999999999987806 0.0 0.1
6.999999999984885 0.0 0.1
7.999999999982034 0.0 0.1
8.999999999983277 0.0 0.1
9.999999999984798 0.0 0.1
10.99999999998632 0.0 0.1
11.99999999998784 0.0 0.1
12.99999999998936 0.0 0.1
13.99999999999088 0.0 0.1
14.9999999999924 0.0 0.1
15.99999999999392 0.0 0.1
16.99999999999544 0.0 0.1
17.99999999999696 0.0 0.1
18.99999999999848 0.0 0.1
20.0 0.999999999999102 0.1
20.0 1.999999999998378 0.1
20.0 2.999999999996569 0.1
20.0 3.999999999993648 0.1
20.0 4.999999999990727 0.1
20.0 5.999999999987806 0.1
20.0 6.999999999984885 0.1
20.0 7.999999999982034 0.1
20.0 8.999999999983277 0.1
20.0 9.999999999984798 0.1
20.0 10.99999999998632 0.1
20.0 11.99999999998784 0.1
20.0 12.99999999998936 0.1
20.0 13.99999999999088 0.1
20.0 14.9999999999924 0.1
20.0 15.99999999999392 0.1
20.0 16.99999999999544 0.1
20.0 17.99999999999696 0.1
20.0 18.99999999999848 0.1
19.0 20.0 0.1
18.0 20.0 0.1
17.0 20.0 0.1
15.99999999999999 20.0 0.1
14.99999999999999 20.0 0.1
13.99999999999999 20.0 0.1
12.99999999999999 20.0 0.1
11.99999999999999 20.0 0.1
10.99999999999999 20.0 0.1
9.999999999999993 20.0 0.1
8.999999999999995 20.0 0.1
7.999999999999993 20.0 0.1
6.999999999999995 20.0 0.1
5.999999999999996 20.0 0.1
4.999999999999996 20.0 0.1
3.999999999999996 20.0 0.1
3.0 20.0 0.1
1.999999999999996 20.0 0.1
1.0 20.0 0.1
0.0 19.0 0.1
0.0 18.0 0.1
0.0 17.0 0.1
0.0 15.99999999999999 0.1
0.0 14.99999999999999 0.1
0.0 13.99999999999999 0.1
0.0 12.99999999999999 0.1
0.0 11.99999999999999 0.1
0.0 10.99999999999999 0.1
0.0 9.999999999999993 0.1
0.0 8.999999999999995 0.1
0.0 7.999999999999993 0.1
0.0 6.999999999999995 0.1
0.0 5.999999999999996 0.1
0.0 4.999999999999996 0.1
0.0 3.999999999999996 0.1
0.0 3.0 0.1
0.0 1.999999999999996 0.1
0.0 1.0 0.1
0.0 0.0 0.02499999999994167
0.0 0.0 0.04999999999986855
0.0 0.0 0.0749999999999336
20.0 0.0 0.02499999999994167
20.0 0.0 0.04999999999986855
20.0 0.0 0.0749999999999336
20.0 20.0 0.02499999999994167
20.0 20.0 0.04999999999986855
20.0 20.0 0.0749999999999336
0.0 20.0 0.02499999999994167
0.0 20.0 0.04999999999986855
0.0 20.0 0.0749999999999336
0.999999999999147 0.999999999999955 0.0
0.9999999999991918 1.999999999999916 0.0
0.9999999999992367 2.999999999999829 0.0
0.9999999999992815 3.999999999999678 0.0
0.9999999999993263 4.999999999999535 0.0
0.9999999999993713 5.999999999999385 0.0
0.9999999999994164 6.999999999999237 0.0
0.9999999999994611 7.999999999999095 0.0
0.9999999999995062 8.999999999999158 0.0
0.999999999999551 9.999999999999236 0.0
0.999999999999596 10.99999999999931 0.0
0.9999999999996407 11.99999999999939 0.0
0.9999999999996858 12.99999999999946 0.0
0.9999999999997308 13.99999999999953 0.0
0.9999999999997753 14.99999999999961 0.0
0.9999999999998204 15.99999999999969 0.0
0.9999999999998653 16.99999999999977 0.0
0.9999999999999102 17.99999999999985 0.0
0.999999999999955 18.99999999999992 0.0
1.999999999998458 0.9999999999999103 0.0
1.999999999998539 1.999999999999834 0.0
1.999999999998621 2.999999999999657 0.0
1.999999999998701 3.999999999999361 0.0
1.999999999998782 4.999999999999068 0.0
1.999999999998863 5.999999999998779 0.0
1.999999999998944 6.999999999998483 0.0
1.999999999999025 7.999999999998196 0.0
1.999999999999106 8.99999999999832 0.0
1.999999999999187 9.999999999998472 0.0
1.999999999999268 10.99999999999863 0.0
1.999999999999349 11.99999999999878 0.0
1.99999999999943 12.99999999999893 0.0
1.999999999999511 13.99999999999907 0.0
1.999999999999592 14.99999999999923 0.0
1.999999999999672 15.99999999999939 0.0
1.999999999999754 16.99999999999954 0.0
1.999999999999834 17.99999999999969 0.0
1.999999999999915 18.99999999999985 0.0
2.999999999996741 0.9999999999998653 0.0
2.999999999996913 1.999999999999754 0.0
2.999999999997084 2.999999999999486 0.0
2.999999999997256 3.999999999999044 0.0
2.999999999997427 4.999999999998607 0.0
2.999999999997598 5.999999999998168 0.0
2.99999999999777 6.999999999997728 0.0
2.999999999997941 7.999999999997296 0.0
2.999999999998114 8.999999999997488 0.0
2.999999999998284 9.999999999997716 0.0
2.999999999998456 10.99999999999794 0.0
2.999999999998628 11.99999999999817 0.0
2.999999999998799 12.9999999999984 0.0
2.999999999998971 13.99999999999862 0.0
2.999999999999142 14.99999999999885 0.0
2.999999999999313 15.99999999999908 0.0
2.999999999999485 16.99999999999931 0.0
2.999999999999657 17.99999999999953 0.0
2.999999999999828 18.99999999999977 0.0
3.999999999993964 0.9999999999998204 0.0
3.999999999994283 1.999999999999672 0.0
3.9999999999946 2.999999999999314 0.0
3.999999999994917 3.999999999998726 0.0
3.999999999995235 4.999999999998141 0.0
3.999999999995553 5.999999999997558 0.0
3.999999999995869 6.999999999996973 0.0
3.999999999996187 7.999999999996401 0.0
3.999999999996505 8.999999999996648 0.0
3.999999999996822 9.999999999996955 0.0
3.99999999999714 10.99999999999726 0.0
3.999999999997456 11.99999999999756 0.0
3.999999999997774 12.99999999999786 0.0
3.999999999998092 13.99999999999817 0.0
3.999999999998409 14.99999999999847 0.0
3.999999999998727 15.99999999999878 0.0
3.999999999999044 16.99999999999908 0.0
3.999999999999361 17.99999999999939 0.0
3.999999999999678 18.99999999999969 0.0
4.999999999991191 0.9999999999997755 0.0
4.999999999991652 1.999999999999592 0.0
4.999999999992117 2.999999999999143 0.0
4.999999999992581 3.99999999999841 0.0
4.999999999993044 4.99999999999768 0.0
4.999999999993507 5.999999999996948 0.0
4.999999999993971 6.999999999996218 0.0
4.999999999994435 7.999999999995502 0.0
4.999999999994898 8.999999999995817 0.0
4.999999999995362 9.999999999996195 0.0
4.999999999995826 10.99999999999658 0.0
4.999999999996289 11.99999999999696 0.0
4.999999999996753 12.99999999999733 0.0
4.999999999997216 13.99999999999771 0.0
4.99999999999768 14.99999999999809 0.0
4.999999999998142 15.99999999999848 0.0
4.999999999998607 16.99999999999886 0.0
4.999999999999069 17.99999999999923 0.0
4.999999999999532 18.99999999999962 0.0
5.999999999988415 0.9999999999997308 0.0
5.999999999989027 1.999999999999511 0.0
5.999999999989636 2.999999999998971 0.0
5.999999999990243 3.999999999998092 0.0
5.999999999990854 4.999999999997215 0.0
5.999999999991464 5.99999999999634 0.0
5.999999999992072 6.999999999995461 0.0
5.999999999992681 7.999999999994603 0.0
5.999999999993292 8.99999999999498 0.0
5.999999999993901 9.999999999995435 0.0
5.99999999999451 10.99999999999589 0.0
5.999999999995119 11.99999999999634 0.0
5.999999999995731 12.9999999999968 0.0
5.999999999996339 13.99999999999726 0.0
5.999999999996948 14.99999999999771 0.0
5.999999999997558 15.99999999999817 0.0
5.999999999998169 16.99999999999863 0.0
5.999999999998778 17.99999999999908 0.0
5.999999999999385 18.99999999999955 0.0
6.999999999985641 0.9999999999996855 0.0
6.999999999986395 1.99999999999943 0.0
6.999999999987152 2.9999999999988 0.0
6.999999999987908 3.999999999997774 0.0
6.999999999988663 4.999999999996753 0.0
6.999999999989418 5.999999999995731 0.0
6.999999999990174 6.999999999994707 0.0
6.99999999999093 7.999999999993706 0.0
6.999999999991685 8.999999999994142 0.0
6.99999999999244 9.999999999994674 0.0
6.999999999993195 10.99999999999521 0.0
6.999999999993952 11.99999999999574 0.0
6.999999999994706 12.99999999999627 0.0
6.999999999995461 13.9999999999968 0.0
6.999999999996219 14.99999999999733 0.0
6.999999999996972 15.99999999999787 0.0
6.999999999997728 16.9999999999984 0.0
6.999999999998485 17.99999999999894 0.0
6.999999999999239 18.99999999999947 0.0
7.999999999982932 0.999999999999641 0.0
7.999999999983829 1.999999999999349 0.0
7.999999999984725 2.999999999998627 0.0
7.999999999985626 3.999999999997457 0.0
7.999999999986523 4.999999999996289 0.0
7.99999999998742 5.999999999995119 0.0
7.999999999988319 6.999999999993952 0.0
7.999999999989218 7.99999999999281 0.0
7.999999999990116 8.99999999999331 0.0
[...]
POINT_DATA 2205
SCALARS stress11 float
LOOKUP_TABLE default
-8041987764.0
-9832580964.0
-8686131718.640625
-8445414885.0
7194572811.0
9359284701.0
8140875133.25
7772511609.0
-6538508769.0
-11766037513.0
-17837080712.0
-26883653286.0
-36630144939.0
-46389313677.0
-56599682633.0
-64359043408.0
-71396615342.0
-68934986057.0
-69932355846.0
-64864351742.0
-57848087220.0
-47183240395.0
-38080060756.0
-26033487032.0
-18734226358.0
-10570474204.0
-6766069479.0
-6584688644.5
-10810704055.0
-18029521992.5
-28196166993.5
-38539548385.0
-47893420475.5
-55937374400.0
-64355275904.0
-69792900337.0
-70172704025.5
-69175966630.5
-64614068487.25
-56975078652.25
-48200754338.25
-37003179268.75
-28599495415.5
-18834417781.0
-10085114929.3125
-6023414422.3125
-6154964197.625
-11704145331.25
-17013469606.25
-27741894852.375
-39905071330.0
-48692906696.75
-56622614099.5
-63178251511.0
-67791815061.75
-69725726264.5
-66478895851.0
-62837572741.5
-56856667344.5
-47954046068.0
-38390084876.0
-27853457478.5
-17579669287.0
-10602695904.5
-6388201831.0
-6988808446.0
-11761617756.0
-16663426326.0
-26880423689.0
-38469794190.0
-49137079091.0
-56367974396.0
-63738378231.0
-69136650359.0
-70109162818.0
-68635565329.0
-62528747684.0
-57549855080.0
-48439742492.0
-37167543709.0
-26606557320.0
-17378306791.0
-10150577591.0
-4893208931.0
5284330756.0
10492669994.0
17604243796.0
25903805534.0
36515841706.0
46238141190.0
56426688192.0
63906917207.0
70131270669.0
68295543147.0
68648127566.0
63439891793.0
57423800343.0
46733121962.0
37717551648.0
26242874729.0
17774241354.0
9539077975.0
6471051611.0
5098158585.0
11304300151.5
17008633412.0
27054522994.0
38763629210.0
47454368037.5
56896308542.5
65061198060.5
68930389920.0
69741123279.5
69865976217.75
64766045596.0
57977636848.0
49084201900.0
37733157187.5
28367145008.125
18681310074.875
9419545334.8125
4772662075.0625
6665438473.34375
11710049102.125
17606060713.0
27961503053.875
38734038384.25
49099384406.5
56290628586.0
63543518433.5
68274537968.75
69985161469.0
68327537048.0
63639541556.0
57773528899.0
48135976408.0
37643047119.0
27481956991.5
18413866171.5
10601012397.0
5836291738.0
5831763701.0
11310158326.0
17160154204.0
26763627145.0
37242099254.0
49281908455.0
56518118185.0
64280003373.0
67831275801.0
70661209003.0
68727869504.0
63651046332.0
57684543665.0
47680133191.0
37583289057.0
26668064585.0
17625432981.0
10382729712.0
5820373608.0
-4197723473.0
-412956832.0
3366279645.0
-4997702538.0
-227952493.0
4537253128.0
-4445438028.0
-264953902.34375
3911531343.578125
-4355901636.0
-327042866.0
3697020883.0
-4431972857.0
-7802631280.0
-13904514596.0
-20211897900.0
-27531775688.0
-35510523995.0
-42594790964.0
-48217020507.0
-50169147431.0
-52554166438.0
-50284019766.0
-48008229460.0
-42051683243.0
-34685498618.0
-28585740816.0
-19800003982.0
-12753426287.0
-8366545208.0
-5164662168.5
-8489765670.0
-11688813775.0
-15529633506.0
-19418315289.0
-22701335685.0
-29256937907.0
-33027607298.0
-36614074634.0
-39678441558.0
-40682929360.0
-40409933706.0
-37585513826.0
-32697045855.0
-29143634486.0
-24051232122.5
-18733673344.5
-15037060042.5
-11208844995.0
-7808323767.0
-12062816047.0
-15234228098.0
-16207346848.0
-16720376381.0
-17937956604.0
-19067813610.0
-21395360764.0
-22759304207.0
-24971044902.0
-24648468520.0
-24534493039.0
-23133117002.5
-21388947808.0
-20976843781.0
-17774385286.0
-16522906292.0
-16404770125.0
-15108718118.0
-14530540254.5
-21434939249.0
-18698551395.0
-16515566067.0
-13023502829.0
-10920226162.0
-8184202793.0
-6029412126.0
-4872543978.0
-5566353242.0
-5158087313.0
-5096806850.0
-5811006487.5
-6463888211.5
-6973399562.0
-9620485790.5
-14023220411.0
-16979023290.5
-18215015283.0
-20833165706.0
-28357384781.0
-23915728858.0
-18081600268.0
-11627197440.0
-1445635507.0
7262861713.0
11535930392.0
15819422456.0
18046038008.5
16417027195.0
17749189272.0
15862845694.5
13834623745.0
5287827125.5
-896619697.0
-10526653430.5
-16665216520.0
-24670252472.0
-28019624262.0
-35553420284.0
-28943115870.0
-19053532171.0
-7618194642.0
6645681870.0
22005309311.0
34615227063.5
40771087713.5
42878063675.0
44917271732.5
44060538923.0
40337981623.0
33128292574.0
21440471604.5
6702997952.0
-8133788256.0
-19636437709.0
-29582770328.0
-34399700161.5
-42427680203.0
-32216630193.0
-20995989336.0
-5738498280.0
12600287303.0
33300629877.5
54481927328.0
69678984359.0
74003012248.0
76630304885.0
74817210509.0
69404283143.5
53825030085.0
33788764336.0
12789583178.0
-5297234145.0
-22265691086.0
-32946076761.0
-41395403407.0
-46065705658.0
-37207684664.0
-23733652160.0
-5534508049.0
14331840277.0
39729137732.5
69405416787.0
99020784620.0
115045490567.5
110600716070.5
114623638731.0
98873923228.5
69609681399.0
39126086494.0
15224942790.0
-5694894004.0
-22709707168.5
-37983417780.5
-45924976137.5
-51179088052.0
-39333821877.0
-26327437696.0
-6121607840.0
16527194856.0
43573419645.5
73741730260.0
113929727902.0
163589593640.0
193304085521.0
162350496413.0
115682239378.5
74738597341.5
43487732239.5
17016395539.0
-5503541019.0
-24635447470.5
-40637764513.0
-50864921986.0
-51205761535.0
-40333570884.0
-25229340093.0
-5212269210.0
17798501227.0
44650824955.0
77976220739.0
109754668540.5
192420312142.0
213706276876.5
192042596261.0
110442550686.0
78484546786.5
43385955628.5
16926697409.0
-5531780361.0
-24466490012.0
-40022323364.5
-51300310435.5
-50459336096.0
-39171182809.0
-24613279250.0
-5717433129.5
16473913716.0
43517811929.0
74583761602.0
114052112694.0
163035083622.5
193391083000.0
162184773833.0
113873732647.5
73263378528.0
43649224281.0
17426390961.0
-6209379788.5
-25027577900.25
-39761122739.75
-50725734558.5
-47808444349.0
-37497314006.0
-23241832568.5
-6183830689.5
16501295313.5
41721323153.5
69722634891.0
99231303877.0
115010738769.0
109894646305.0
114422252142.5
98056145675.5
69390866955.5
39812680084.5
15170309294.75
-6464470056.5
-22866291803.75
-36755823033.75
-47189845989.75
-42043939528.0
-32534360960.0
-22037098724.0
-6096509417.0
12783494212.5
33636683449.5
54860297724.5
68583901448.0
73846403153.5
78210092186.0
74385780231.0
68781619737.5
54130683615.0
33105781952.5
12657792677.5
-5691624938.25
-22545720414.25
-33383969679.5
-41519318867.25
-35658915188.0
-28892720898.0
-19486367711.0
-7550010561.0
6690435095.5
20884935775.5
33124516183.5
41041601548.0
43217423941.5
43880801447.0
43746203001.5
40524821110.0
34223382414.75
20961224929.5
6347559629.0
-7042691304.25
-18532792178.25
-28886047755.75
-35390296151.0
-27399344890.0
-23546332733.5
-17786485006.0
-10489312598.0
24274690.0
6323324281.0
12220201483.5
15486313753.5
16270011465.0
17191773849.0
16846548352.5
15196301319.25
12289554880.0
6479905022.0
-839061202.0
-8273258013.75
-19290951556.25
-24366231504.75
-27084205943.0
-20456779128.0
-18710427328.5
-17644705144.0
-12957007296.5
-10021197593.0
-7501879962.0
-6446316245.0
-6866648653.5
-6442479107.5
-5270223833.5
-5839065747.0
-7488977802.0
-5833898895.5
-7626121022.25
-10029522632.0
-13247926580.5
-16024421656.25
-18805447392.75
-20605030932.125
-13699653585.0
-14669323960.5
-15476779565.5
-17167670685.5
-17985470992.0
-18641757904.5
-22799752285.0
-22635269151.0
-24778998858.0
-25484614313.5
-23399670635.5
-23301126667.25
-21700875521.5
-20211371339.0
-17990494170.5
-17368974153.875
-14950535169.5
-15434176762.5
-13829634648.5
-8291530109.0
-11892389515.5
-15292896153.5
-19813592596.5
-23749288049.5
-29161060093.5
-34213736671.0
-36959954160.5
-39565215915.5
-40187814814.5
-39819968819.25
-37754797484.25
-33073154002.5
-28921162188.5
-24261584273.75
-19801130397.375
-16206790564.875
-11301020145.0
-8694348465.875
-3728947140.0
-9349431985.0
-12683177426.0
-20693606527.0
-26106194594.0
-35443733155.0
-41898789471.5
-46197134350.5
-49391108433.5
-51820903607.5
-51419845642.5
-47131706776.5
-42611506736.5
-34978560729.5
-28618687542.75
-21427986597.25
-13278879457.5
-9016163081.5
-4192882402.5625
4163035237.0
7973251918.0
14005421837.0
20002219923.0
27541957051.0
35585319306.0
42596686969.0
47886128763.0
50239852311.0
52146028202.0
50491087981.0
48253555188.0
41837185562.0
34796988775.0
29099942262.0
19691991629.0
12735130287.0
8057257590.0
5107306980.5
8297952146.0
11330696351.0
15274698243.0
18974168242.0
22557121601.0
28665493480.0
33610060459.0
36981149453.0
39837236946.0
41301362100.0
40304971092.0
37993270533.0
32632311555.0
29028496805.5
23953518914.0
18817516929.5
15017792495.0
11195515163.5
7590175556.5
12462879072.0
14862298857.0
16495061766.0
16895905359.0
17982611854.0
19625917686.0
21312920088.0
22872531759.0
24589415608.0
24246904111.0
24436545644.0
22936355404.5
21438275064.5
21280535680.0
17535638198.0
16282716443.5
16380535966.0
15397938450.0
14076729847.5
21429886189.0
18857347243.0
16601602532.0
13321070043.0
10683827481.0
7890345987.0
6378263009.0
4808564515.0
5392681820.0
5513260739.5
5066912913.0
6177814736.5
6315751035.5
7145507089.5
9671098137.5
14175383514.5
17242708681.0
18853689195.0
20541329407.0
28338731417.0
23858295730.0
18490879404.0
11661039462.0
1420636724.0
-7049145076.0
-11734787273.0
-15473046086.0
-17752037475.5
-16546992372.5
-17556206823.0
-15689984249.5
-13446896129.5
-5544876547.0
853384206.0
10642452393.0
16753407154.5
24813859924.0
27996549185.5
35637741962.0
28689196236.0
18664111332.0
7729082816.0
-6502842016.0
-21806609597.0
-34591547700.5
-40615889914.5
-43281261360.0
-44635458453.5
-44355297029.0
-40511019660.5
-33026658984.5
-21142303776.5
-6576873398.0
8124902586.5
19143404731.0
29632663767.5
34595411404.0
42094780822.0
32826177003.0
20969319236.0
6086120761.0
-12471425622.0
-33584855323.5
-54469219241.5
-69490275491.5
-74272439161.5
-76506639355.5
-74697564646.0
-69458964062.5
-53828891274.5
-33625008884.5
-12857111141.0
5342009094.0
22442335629.0
32732049609.0
41288340308.5
46547883363.0
37206971852.0
23575803255.0
5672802563.0
-14526762678.0
-39752656097.0
-69344497306.5
-98941685486.0
-115124879089.5
-110562427375.0
-114976905802.5
-98571135105.5
-69467472880.5
-39745224680.5
-15021699143.5
5459699896.0
22671750338.0
38283427303.0
46251947416.5
51127298435.0
39482335333.0
26234170847.0
6247973566.0
-16176226485.5
-43693339489.0
-74163676787.5
-113701230968.0
-163775965431.5
-193133495448.5
-162277361969.5
-115749766534.0
-74780104127.0
-43360074417.5
-17332571931.5
5439770329.0
25247055468.5
40445703404.5
50356815148.5
51507858556.0
40450125621.0
25207774856.0
5098588448.5
-18088063438.5
-44069065405.0
-77768969824.0
-109885826161.5
-192757526639.5
-213669108237.5
-192341744611.0
-110093726924.0
-78226529496.5
-43388982858.5
-16697376062.0
5253097588.0
24473402968.0
39754871981.5
51382011863.0
50388729000.0
39228625689.0
25098624337.0
6256195231.5
-16836057294.5
-43824513878.5
-74468654805.0
-114588849687.0
-163147092407.0
-193392925819.5
-162236359602.5
-113760870969.0
-73429420220.5
-43987258153.0
-17083245033.0
6432869253.0
24880354991.75
39690071353.0
50645004936.75
47841477286.0
37080180084.0
23396741073.5
6034525589.0
-16196381112.5
-41355035050.5
-69754677983.5
-98595813217.5
-114684841209.0
-110187959068.0
-114559239641.0
-98003316459.5
-69460185162.5
-39773050745.5
-15050030698.75
6341586539.0
22876284132.25
36655390580.25
47373041103.0
42329615329.0
32965934021.0
21586696973.5
6200236823.0
-12784927118.5
-33860779764.5
-54596166649.5
-69001710603.0
-73706703009.5
-78220194776.5
-74576030317.5
-68830857765.0
-53954857454.0
-33209562957.25
-12441630032.5
5788861054.5
22864129813.5
33739270071.25
41702278408.0
36005500799.0
29259405118.5
19356427184.0
7808568501.5
-6669448152.0
-21117941570.5
-33375678216.0
-40776066777.0
-43340234552.0
-43804464608.5
-43772767801.0
-40075982914.0
-34042647658.25
-21002852034.25
-6259247763.25
6961681346.75
18720017758.75
28951030702.0
35269714816.25
27031660631.0
23554015806.0
17911592840.0
10527100785.5
479310155.0
-6501185777.0
-12154411190.5
-15466061743.5
-16309455892.5
-17266949724.0
-16775232362.0
-15308352386.25
-12208272311.75
-6698906226.0
823676983.5
8778152435.5
19199074194.25
23749482070.5
27289898052.5
19760648072.0
18910467377.5
17566236674.5
13709961507.5
9933786088.5
7470223709.5
6758026391.0
6898973286.5
6414042956.5
5557394089.0
5966001668.0
7853329176.75
5863931057.5
7562202928.0
9543569231.25
13213308521.75
16071882652.625
19142154140.75
20189568672.875
13954857550.0
14604660353.0
15108851452.5
16972653194.5
18047030625.0
18798446699.5
22785528103.0
23138348889.0
24551076397.5
25505719952.5
23672349531.75
23343854767.5
22107307027.75
20029573294.25
18256034430.75
17563426857.0
14627609557.625
15571763236.0
13743288698.125
7921836214.0
12325311579.5
15321216369.0
19753399881.0
23399263458.5
29591586248.5
33888366400.0
36806928854.5
39861910626.0
40085924943.5
39908963070.0
37533110827.25
33011106120.5
29020360576.25
24281385639.5
20065670611.125
16116264748.75
10846311972.5
8588962366.4375
3797959266.0
8939509904.5
12633915223.5
20853986527.5
26307026761.0
35430168440.5
41333432145.0
46319328998.5
49608006017.5
51851952690.5
51361885349.0
47573180571.0
42188909130.25
35063501398.75
28705596828.5
21190087952.375
13578439458.625
9094705372.375
3867966381.4375
-3504772283.0
-591608197.0
2303540779.0
-6082384956.0
-594358294.0
4872173648.0
-8843122306.0
-116775221.0
8609852465.0
-13460524800.0
-458149087.0
12528307940.0
-18066382554.0
-54210881.0
17956497996.0
-22879375500.0
-64300352.0
22744941288.0
-27926514679.0
-83041788.0
27758756066.0
-31827149691.0
-226690677.0
31374068645.0
-35490794562.0
-611834388.0
34256643735.0
-34122270950.0
-320397359.0
33481870234.0
-34760973691.0
-610111614.0
33524879035.0
-32291093591.0
-674997258.0
30922510237.0
-28611894250.0
-215151731.0
28183327811.0
-23352307217.0
-219544437.0
22910473873.0
-18844012832.0
-169001523.0
18500099947.0
-12765976912.0
103571722.0
12973936154.0
-9445719798.0
-450470326.0
8529919505.0
-5427495410.0
-474423139.0
4457718795.0
-3389809452.0
-131238372.0
3119153860.0
-3579566071.0
-699330138.5
2158633717.5
-5204052061.5
231976170.5
5675610136.0
-9109425032.0
-476577643.5
8139103266.5
-14154977344.0
-540793421.0
13058324789.0
-18941753305.0
100319943.0
19148294291.5
-23693921904.0
-202268073.0
23280609785.5
-27329721817.0
460586971.0
28260617173.0
-31542654555.0
340392344.0
32229838378.5
-34596974354.5
-411489911.0
33764141271.5
-34678782796.5
-209395954.0
34256735240.5
-33926732456.25
324357949.5
34586093115.25
-31798036668.75
77538855.5
31952419820.0
-27834555367.0
477956539.25
28802452843.75
-23552749670.25
405669610.75
24382486406.5
-18066113741.25
331470925.25
18746263108.75
-14138765223.75
-105588905.625
13922398654.25
-9304526132.125
-65161388.625
9168662223.0
-5109802541.5
-309775259.875
4478675022.3125
-3248674653.3125
-587881945.5
2054192670.53125
-2900887806.53125
248934235.0625
3402094940.28125
-5747391713.3125
19333154.375
5777844220.625
-8229070556.0
288466826.625
8809877437.125
-13606059303.25
114671800.125
13833144114.5
-19931869199.75
-548231575.5
18816671242.0
-23892503265.75
194713604.0
24286510062.25
-27968091182.5
-150172483.25
27659940632.5
-31038067973.0
177166932.75
31395141065.5
-33282655240.0
233991336.5
33754468161.25
-34286886053.0
133410643.5
34551904133.0
-32321255040.0
874238907.5
34095146269.0
-30769090251.5
383733145.5
31545479412.5
-27795658734.5
441039877.5
28686786480.5
-23582094544.0
89114205.5
23761488308.5
-19091970100.5
-359462758.5
18366203705.5
-13804746465.0
-175128868.0
13449335956.5
-8453723068.5
401672325.0
9264829337.5
-5209129851.5
9455983.5
5222887342.0
-3258937823.0
-248824206.5
2747521960.5
-3694351829.0
-534026042.0
2603954404.0
-5892940573.0
-210929793.0
5463746858.0
-8091341387.0
228317700.0
8558133234.0
-13268564789.0
-58776761.0
13151377784.0
-19239699680.0
-585355868.0
18054715829.0
-24186139760.0
57350783.0
24308551456.0
-27736056846.0
69169476.0
27877469579.0
-31283244599.0
248231423.0
31791137251.0
-34370376804.0
-619245719.0
33114967977.0
-34417304954.0
258939792.0
34943919970.0
-33792620409.0
50271101.0
33891203354.0
-30542417758.0
532258862.0
31621689057.0
-28330717663.0
56941216.0
28450115583.0
-24042560219.0
-358918385.0
23314295992.0
-18208836303.0
201287114.0
18615012788.0
-13082947354.0
38828778.0
13156733035.0
-8493525154.0
121303659.0
8737260804.0
-4929531936.0
121687638.0
5169941772.0
-2178253598.0
448230089.0
3082561463.0
-2138390549.0
-90018669.0
1935864977.0
-3661606370.0
106480620.0
3864073197.0
-6641634693.0
55544821.0
6750241700.0
-9750736847.0
-90533668.0
9562440722.0
-13233936105.0
774180.0
13237832016.0
-17073386827.0
24317304.0
17128869337.0
-20504033237.0
-8251840.0
20492178911.0
-23274771784.0
-135812507.0
22988407158.0
-24104999998.0
57131842.0
24208567661.0
-25395590970.0
-190648022.0
25007501211.0
-24165559844.0
73379827.0
24327810874.0
-23081188779.0
79539700.0
23261968720.0
-20290042079.0
-110196740.0
20071264264.0
-16668279604.0
26902634.0
16736763304.0
-13643100233.0
227961023.0
14113940277.0
-9526013672.0
-42948128.0
9434587546.0
-6121311307.0
-23543090.0
6081565954.0
-4047347430.0
-119068643.0
3791444596.0
-2438897892.5
19907442.5
2454321158.5
-4086927704.0
-66501306.0
3939115532.0
-5667598181.0
-149906920.0
5353267443.0
-7494001162.0
-96963047.0
7284702847.0
-9408748016.0
-187209277.0
9016834284.0
-10925491170.0
-70105647.0
10784344594.0
-14192249096.0
-260700553.0
13653189378.0
-15758696893.0
247986548.0
16276699813.0
-17529354478.0
150146779.0
17846773126.0
-19067656869.0
46140124.0
19176878513.0
-19468904345.0
230900501.0
19970291590.0
-19484451151.0
-72514185.0
19349573958.0
-18013066245.0
153119875.0
18345076801.0
-15730089233.0
-36741692.0
15658707045.0
-14044297886.5
-64968827.5
13918190314.5
-11573283149.0
-41738456.0
11486337467.0
-8971627122.0
34790201.5
9045080516.0
-7220735668.0
-17650662.0
7189411860.5
-5351089832.0
12656268.0
5366864198.5
-3750562976.0
-70839793.5
3589660281.5
-5690637711.0
160871598.0
6032195906.0
-7391639980.0
-174123813.0
7037710728.0
-7727641969.0
112091827.0
7968038378.0
-7995191179.0
66837465.0
8139675472.0
-8620449650.0
-2165138.0
8628670003.0
-9041406832.0
243188642.0
9545956649.0
-10315645816.0
-47442187.0
10223900388.0
-10937620467.0
28224627.0
11008481283.0
-12111478792.0
-182585341.0
11742105201.0
-11943213772.0
-182872190.0
11568556767.0
-11830337260.0
-48990986.0
11732452073.0
-11183135728.5
-106486242.0
10974257202.0
-10292779367.0
-6183406.5
10296100207.0
-10058202278.0
98386422.5
10281987352.0
-8584564579.0
-107382744.0
8363773352.0
-7976298726.0
-106954653.0
7755935368.5
-7886595585.0
-22673283.0
7846688413.5
-7187556165.0
119451218.5
7439272230.0
-7059347939.0
-186623961.0
6665932422.5
-10308293032.0
-3627454.0
10301684909.0
-8951484928.0
48984650.0
9064757729.0
-7912229483.0
24236269.0
7970248724.0
-6185158214.0
124792308.0
6447000065.0
-5310556099.0
-118051593.0
5074448133.0
-4011517704.0
-142175950.0
3724759586.0
-2851527746.0
131366435.0
3136002853.0
-2392275624.0
-60342137.0
2285953651.0
-2745339774.0
-91007721.0
2565447988.0
-2436828569.0
138295927.0
2733398635.0
-2494967987.5
-40732549.5
2426512287.0
-2775209530.5
113059196.0
3036902779.5
-3181489314.5
-102474939.5
2990985736.0
-3318377427.5
61703706.0
3454119199.0
-4601698059.0
21242732.0
4646388950.5
-6712904302.5
50563976.0
6827243976.0
-8113825032.0
90980305.5
8316398976.5
-8614605487.5
254053329.0
9155834669.5
-10061357051.5
-120295511.5
9808027356.0
-13638583322.0
-5830125.0
13625247150.0
-11509970238.0
-40744491.0
11434687819.0
-8598880085.0
175627724.0
8964892928.0
-5588645113.0
14369459.0
5618824613.0
-702923470.0
-19295319.0
667831187.0
3530777239.0
82072243.0
-3354068327.0
5468931011.0
-102004690.0
-5671605544.0
7631467831.0
127479028.0
-7353340175.0
8699845549.5
113646332.5
-8455639499.5
7803355306.0
-70158296.0
-7941055341.0
8525529891.5
60403074.5
-8386602254.0
7606744858.0
37619262.5
-7506868113.5
6709374786.5
137158555.0
-6406519606.0
2455900162.5
-136015393.0
-2724038840.0
-436220680.0
-30069410.0
380332238.0
-5038942708.0
43782633.5
5133721009.0
-7975725410.0
29241942.5
8041896628.5
-11837482437.5
49366600.5
11947507246.5
-13475720058.0
-13282603.0
13450174039.0
-17082880078.0
43790262.0
17169782704.0