# vtk DataFile Version 2.0
Generated Volume Mesh
ASCII
DATASET UNSTRUCTURED_GRID
POINTS 2646 float
0.0 0.0 0.0
20.0 0.0 0.0
20.0 20.0 0.0
0.0 20.0 0.0
0.0 0.0 0.1
20.0 0.0 0.1
20.0 20.0 0.1
0.0 20.0 0.1
0.999999999999102 0.0 0.0
1.999999999998378 0.0 0.0
2.999999999996569 0.0 0.0
3.999999999993648 0.0 0.0
4.999999999990727 0.0 0.0
5.999999999987806 0.0 0.0
6.999999999984885 0.0 0.0
7.999999999982034 0.0 0.0
8.999999999983277 0.0 0.0
9.999999999984798 0.0 0.0
10.99999999998632 0.0 0.0
11.99999999998784 0.0 0.0
12.99999999998936 0.0 0.0
13.99999999999088 0.0 0.0
14.9999999999924 0.0 0.0
15.99999999999392 0.0 0.0
16.99999999999544 0.0 0.0
17.99999999999696 0.0 0.0
18.99999999999848 0.0 0.0
20.0 0.999999999999102 0.0
20.0 1.999999999998378 0.0
20.0 2.999999999996569 0.0
20.0 3.999999999993648 0.0
20.0 4.999999999990727 0.0
20.0 5.999999999987806 0.0
20.0 6.999999999984885 0.0
20.0 7.999999999982034 0.0
20.0 8.999999999983277 0.0
20.0 9.999999999984798 0.0
20.0 10.99999999998632 0.0
20.0 11.99999999998784 0.0
20.0 12.99999999998936 0.0
20.0 13.99999999999088 0.0
20.0 14.9999999999924 0.0
20.0 15.99999999999392 0.0
20.0 16.99999999999544 0.0
20.0 17.99999999999696 0.0
20.0 18.99999999999848 0.0
19.0 20.0 0.0
18.0 20.0 0.0
17.0 20.0 0.0
15.99999999999999 20.0 0.0
14.99999999999999 20.0 0.0
13.99999999999999 20.0 0.0
12.99999999999999 20.0 0.0
11.99999999999999 20.0 0.0
10.99999999999999 20.0 0.0
9.999999999999993 20.0 0.0
8.999999999999995 20.0 0.0
7.999999999999993 20.0 0.0
6.999999999999995 20.0 0.0
5.999999999999996 20.0 0.0
4.999999999999996 20.0 0.0
3.999999999999996 20.0 0.0
3.0 20.0 0.0
1.999999999999996 20.0 0.0
1.0 20.0 0.0
0.0 19.0 0.0
0.0 18.0 0.0
0.0 17.0 0.0
0.0 15.99999999999999 0.0
0.0 14.99999999999999 0.0
0.0 13.99999999999999 0.0
0.0 12.99999999999999 0.0
0.0 11.99999999999999 0.0
0.0 10.99999999999999 0.0
0.0 9.999999999999993 0.0
0.0 8.999999999999995 0.0
0.0 7.999999999999993 0.0
0.0 6.999999999999995 0.0
0.0 5.999999999999996 0.0
0.0 4.999999999999996 0.0
0.0 3.999999999999996 0.0
0.0 3.0 0.0
0.0 1.999999999999996 0.0
0.0 1.0 0.0
0.999999999999102 0.0 0.1
1.999999999998378 0.0 0.1
2.999999999996569 0.0 0.1
3.999999999993648 0.0 0.1
4.999999999990727 0.0 0.1
5.999999999987806 0.0 0.1
6.999999999984885 0.0 0.1
7.999999999982034 0.0 0.1
8.999999999983277 0.0 0.1
9.999999999984798 0.0 0.1
10.99999999998632 0.0 0.1
11.99999999998784 0.0 0.1
12.99999999998936 0.0 0.1
13.99999999999088 0.0 0.1
14.9999999999924 0.0 0.1
15.99999999999392 0.0 0.1
16.99999999999544 0.0 0.1
17.99999999999696 0.0 0.1
18.99999999999848 0.0 0.1
20.0 0.999999999999102 0.1
20.0 1.999999999998378 0.1
20.0 2.999999999996569 0.1
20.0 3.999999999993648 0.1
20.0 4.999999999990727 0.1
20.0 5.999999999987806 0.1
20.0 6.999999999984885 0.1
20.0 7.999999999982034 0.1
20.0 8.999999999983277 0.1
20.0 9.999999999984798 0.1
20.0 10.99999999998632 0.1
20.0 11.99999999998784 0.1
20.0 12.99999999998936 0.1
20.0 13.99999999999088 0.1
20.0 14.9999999999924 0.1
20.0 15.99999999999392 0.1
20.0 16.99999999999544 0.1
20.0 17.99999999999696 0.1
20.0 18.99999999999848 0.1
19.0 20.0 0.1
18.0 20.0 0.1
17.0 20.0 0.1
15.99999999999999 20.0 0.1
14.99999999999999 20.0 0.1
13.99999999999999 20.0 0.1
12.99999999999999 20.0 0.1
11.99999999999999 20.0 0.1
10.99999999999999 20.0 0.1
9.999999999999993 20.0 0.1
8.999999999999995 20.0 0.1
7.999999999999993 20.0 0.1
6.999999999999995 20.0 0.1
5.999999999999996 20.0 0.1
4.999999999999996 20.0 0.1
3.999999999999996 20.0 0.1
3.0 20.0 0.1
1.999999999999996 20.0 0.1
1.0 20.0 0.1
0.0 19.0 0.1
0.0 18.0 0.1
0.0 17.0 0.1
0.0 15.99999999999999 0.1
0.0 14.99999999999999 0.1
0.0 13.99999999999999 0.1
0.0 12.99999999999999 0.1
0.0 11.99999999999999 0.1
0.0 10.99999999999999 0.1
0.0 9.999999999999993 0.1
0.0 8.999999999999995 0.1
0.0 7.999999999999993 0.1
0.0 6.999999999999995 0.1
0.0 5.999999999999996 0.1
0.0 4.999999999999996 0.1
0.0 3.999999999999996 0.1
0.0 3.0 0.1
0.0 1.999999999999996 0.1
0.0 1.0 0.1
0.0 0.0 0.01999999999995601
0.0 0.0 0.0399999999998959
0.0 0.0 0.0599999999998943
0.0 0.0 0.07999999999994742
20.0 0.0 0.01999999999995601
20.0 0.0 0.0399999999998959
20.0 0.0 0.0599999999998943
20.0 0.0 0.07999999999994742
20.0 20.0 0.01999999999995601
20.0 20.0 0.0399999999998959
20.0 20.0 0.0599999999998943
20.0 20.0 0.07999999999994742
0.0 20.0 0.01999999999995601
0.0 20.0 0.0399999999998959
0.0 20.0 0.0599999999998943
0.0 20.0 0.07999999999994742
0.999999999999147 0.999999999999955 0.0
0.9999999999991918 1.999999999999916 0.0
0.9999999999992367 2.999999999999829 0.0
0.9999999999992815 3.999999999999678 0.0
0.9999999999993263 4.999999999999535 0.0
0.9999999999993713 5.999999999999385 0.0
0.9999999999994164 6.999999999999237 0.0
0.9999999999994611 7.999999999999095 0.0
0.9999999999995062 8.999999999999158 0.0
0.999999999999551 9.999999999999236 0.0
0.999999999999596 10.99999999999931 0.0
0.9999999999996407 11.99999999999939 0.0
0.9999999999996858 12.99999999999946 0.0
0.9999999999997308 13.99999999999953 0.0
0.9999999999997753 14.99999999999961 0.0
0.9999999999998204 15.99999999999969 0.0
0.9999999999998653 16.99999999999977 0.0
0.9999999999999102 17.99999999999985 0.0
0.999999999999955 18.99999999999992 0.0
1.999999999998458 0.9999999999999103 0.0
1.999999999998539 1.999999999999834 0.0
1.999999999998621 2.999999999999657 0.0
1.999999999998701 3.999999999999361 0.0
1.999999999998782 4.999999999999068 0.0
1.999999999998863 5.999999999998779 0.0
1.999999999998944 6.999999999998483 0.0
1.999999999999025 7.999999999998196 0.0
1.999999999999106 8.99999999999832 0.0
1.999999999999187 9.999999999998472 0.0
1.999999999999268 10.99999999999863 0.0
1.999999999999349 11.99999999999878 0.0
1.99999999999943 12.99999999999893 0.0
1.999999999999511 13.99999999999907 0.0
1.999999999999592 14.99999999999923 0.0
1.999999999999672 15.99999999999939 0.0
1.999999999999754 16.99999999999954 0.0
1.999999999999834 17.99999999999969 0.0
1.999999999999915 18.99999999999985 0.0
2.999999999996741 0.9999999999998653 0.0
2.999999999996913 1.999999999999754 0.0
2.999999999997084 2.999999999999486 0.0
2.999999999997256 3.999999999999044 0.0
2.999999999997427 4.999999999998607 0.0
2.999999999997598 5.999999999998168 0.0
2.99999999999777 6.999999999997728 0.0
2.999999999997941 7.999999999997296 0.0
2.999999999998114 8.999999999997488 0.0
2.999999999998284 9.999999999997716 0.0
2.999999999998456 10.99999999999794 0.0
2.999999999998628 11.99999999999817 0.0
2.999999999998799 12.9999999999984 0.0
2.999999999998971 13.99999999999862 0.0
2.999999999999142 14.99999999999885 0.0
2.999999999999313 15.99999999999908 0.0
2.999999999999485 16.99999999999931 0.0
2.999999999999657 17.99999999999953 0.0
2.999999999999828 18.99999999999977 0.0
3.999999999993964 0.9999999999998204 0.0
3.999999999994283 1.999999999999672 0.0
3.9999999999946 2.999999999999314 0.0
3.999999999994917 3.999999999998726 0.0
3.999999999995235 4.999999999998141 0.0
3.999999999995553 5.999999999997558 0.0
3.999999999995869 6.999999999996973 0.0
3.999999999996187 7.999999999996401 0.0
3.999999999996505 8.999999999996648 0.0
3.999999999996822 9.999999999996955 0.0
3.99999999999714 10.99999999999726 0.0
3.999999999997456 11.99999999999756 0.0
3.999999999997774 12.99999999999786 0.0
3.999999999998092 13.99999999999817 0.0
3.999999999998409 14.99999999999847 0.0
3.999999999998727 15.99999999999878 0.0
3.999999999999044 16.99999999999908 0.0
3.999999999999361 17.99999999999939 0.0
3.999999999999678 18.99999999999969 0.0
4.999999999991191 0.9999999999997755 0.0
4.999999999991652 1.999999999999592 0.0
4.999999999992117 2.999999999999143 0.0
4.999999999992581 3.99999999999841 0.0
4.999999999993044 4.99999999999768 0.0
4.999999999993507 5.999999999996948 0.0
4.999999999993971 6.999999999996218 0.0
4.999999999994435 7.999999999995502 0.0
4.999999999994898 8.999999999995817 0.0
4.999999999995362 9.999999999996195 0.0
4.999999999995826 10.99999999999658 0.0
4.999999999996289 11.99999999999696 0.0
4.999999999996753 12.99999999999733 0.0
4.999999999997216 13.99999999999771 0.0
4.99999999999768 14.99999999999809 0.0
4.999999999998142 15.99999999999848 0.0
4.999999999998607 16.99999999999886 0.0
4.999999999999069 17.99999999999923 0.0
4.999999999999532 18.99999999999962 0.0
5.999999999988415 0.9999999999997308 0.0
5.999999999989027 1.999999999999511 0.0
5.999999999989636 2.999999999998971 0.0
5.999999999990243 3.999999999998092 0.0
5.999999999990854 4.999999999997215 0.0
5.999999999991464 5.99999999999634 0.0
5.999999999992072 6.999999999995461 0.0
5.999999999992681 7.999999999994603 0.0
5.999999999993292 8.99999999999498 0.0
5.999999999993901 9.999999999995435 0.0
5.99999999999451 10.99999999999589 0.0
5.999999999995119 11.99999999999634 0.0
5.999999999995731 12.9999999999968 0.0
5.999999999996339 13.99999999999726 0.0
5.999999999996948 14.99999999999771 0.0
5.999999999997558 15.99999999999817 0.0
5.999999999998169 16.99999999999863 0.0
5.999999999998778 17.99999999999908 0.0
5.999999999999385 18.99999999999955 0.0
6.999999999985641 0.9999999999996855 0.0
6.999999999986395 1.99999999999943 0.0
6.999999999987152 2.9999999999988 0.0
6.999999999987908 3.999999999997774 0.0
6.999999999988663 4.999999999996753 0.0
6.999999999989418 5.999999999995731 0.0
6.999999999990174 6.999999999994707 0.0
6.99999999999093 7.999999999993706 0.0
6.999999999991685 8.999999999994142 0.0
6.99999999999244 9.999999999994674 0.0
6.999999999993195 10.99999999999521 0.0
6.999999999993952 11.99999999999574 0.0
6.999999999994706 12.99999999999627 0.0
6.999999999995461 13.9999999999968 0.0
6.999999999996219 14.99999999999733 0.0
6.999999999996972 15.99999999999787 0.0
6.999999999997728 16.9999999999984 0.0
6.999999999998485 17.99999999999894 0.0
6.999999999999239 18.99999999999947 0.0
7.999999999982932 0.999999999999641 0.0
7.999999999983829 1.999999999999349 0.0
7.999999999984725 2.999999999998627 0.0
7.999999999985626 3.999999999997457 0.0
7.999999999986523 4.999999999996289 0.0
7.99999999998742 5.999999999995119 0.0
[...]
POINT_DATA 2646
SCALARS stress11 float
LOOKUP_TABLE default
-484.3912651836872
-582.3053899817169
-469.0665091332339
-495.75310353562236
519.0432543717325
458.4080415274948
530.9971998454421
474.1842423584312
-379.0363309942186
-549.4297427423298
-802.7684781868011
-1082.6961462497711
-1394.0606629122049
-1696.7132019624114
-1924.2366583179682
-2134.0207863152027
-2286.306715629995
-2309.897706247866
-2291.2929716445506
-2123.933117914945
-1940.2266119755805
-1670.3592957668006
-1387.8035512063652
-1082.7020141333342
-823.9762679766864
-582.3383788056672
-385.04668278060853
-418.867120327428
-604.3145115021616
-841.7459074836224
-1154.3839573543519
-1481.3123358227313
-1778.590277850628
-2036.4907722501084
-2263.6237998977304
-2378.712783271447
-2441.04444382526
-2392.3001007670537
-2238.909339271486
-2045.4823929481208
-1765.1974607682787
-1444.3697807146236
-1142.5467007537372
-831.9437890646514
-585.3036228609271
-359.61182587285293
-372.1434135119198
-549.3761274456047
-817.6037948254962
-1089.681406382937
-1407.7441982077435
-1680.2660646480508
-1937.9391336431727
-2143.5852437671274
-2296.8220383273438
-2301.1772650666535
-2262.7083058664575
-2168.119714184664
-1917.7443877952173
-1659.5263010077178
-1397.2131144497544
-1106.611060678959
-805.969154112041
-559.1738075818866
-379.3705491088331
-384.85339926183224
-559.4838580004871
-805.5861352346838
-1126.3160933703184
-1457.0480391327292
-1810.7265937048942
-2056.55474389717
-2264.126852951944
-2386.422238154337
-2453.593098297715
-2388.9040422588587
-2249.08819918707
-2032.2074579373002
-1811.7729330286384
-1478.637635404244
-1175.8120041768998
-861.231119858101
-561.2138059809804
-375.07883950695395
364.22410041093826
539.560183878988
791.7065051011741
1115.4971551299095
1398.2947759795934
1706.3682263139635
1961.3293251022696
2148.326033225283
2273.1028617806733
2321.3997760787606
2253.4126993902028
2179.0917266141623
2003.393233757466
1708.503647396341
1430.2189897559583
1108.0704333093017
799.5419211369008
515.3370814304799
395.7271589189768
374.894327448681
557.7030073031783
834.9280723407865
1139.3411460835487
1475.896914165467
1799.7994748428464
2081.2099552769214
2255.018346050754
2389.096725150943
2450.4013418480754
2411.5805469807237
2287.817297239788
2074.194564603269
1783.6318958955817
1471.795473032631
1153.3136653280817
808.4872627689037
538.7809944783803
397.5640494420077
369.58273457270116
582.3537094143685
818.3355036072899
1087.2430908302777
1408.5225366195664
1703.129941884894
1977.3230453021824
2154.7935357159004
2210.2426153374836
2327.1725887758657
2270.7603956842795
2123.338623763062
1993.3765647690743
1748.4923916403204
1399.01280865632
1073.6428018212318
770.2080807201564
556.8075559977442
356.59049751609564
379.8492356315255
541.5653335507959
831.8061084914953
1174.545471418649
1496.558505281806
1768.8348999228328
2029.533628437668
2231.3217537160963
2410.362493854016
2426.6102648973465
2397.5293294489384
2275.4016865231097
2052.479436310008
1739.5695674084127
1469.0199453346431
1143.0565435569733
855.6027708910406
575.8341277595609
365.6649598777294
-282.2081195563078
-82.56681117787957
116.34081844612956
316.2963773198426
-371.57242842949927
-163.95012036710978
42.363458132371306
249.21331193298101
-267.77610794789507
-68.92093849778757
129.2889503868355
328.6861619405099
-299.90687575377524
-106.75910464674234
85.46273091994226
278.5360788330436
-503.59338330477476
-981.5775021836162
-1784.2141578178853
-2710.133515069261
-3703.6369601469487
-4621.019610574469
-5429.730824206024
-6048.374036367983
-6406.0387467276305
-6550.205015884712
-6406.295208105817
-6033.965263070539
-5428.571694444865
-4621.745769765228
-3693.491057999432
-2714.964035976678
-1783.6808094214648
-992.1343037448823
-535.1704658009112
-976.8027524854988
-960.3840232100338
-1259.4519966561347
-1694.8266379907727
-2227.7658936604857
-2790.636459685862
-3333.310790643096
-3755.5698627717793
-4015.287432014942
-4153.409110600129
-4036.402273854241
-3776.808141985908
-3310.98173125647
-2807.5877647381276
-2250.7927426528186
-1698.4003242477775
-1265.8397811371833
-943.5313336066902
-976.36946189031
-1751.1991743072867
-1263.3675201777369
-1231.743040587753
-1262.5661667827517
-1464.8912348654121
-1786.353713721037
-2152.0812342986465
-2489.446441343054
-2717.3198074754328
-2789.2876616939902
-2718.640273468569
-2480.8832600712776
-2143.701869925484
-1765.1944431103766
-1484.0996849946678
-1279.0783447362483
-1245.3989048488438
-1250.3777856640518
-1762.4829314593226
-2646.156736606732
-1654.1267398260534
-1238.2176087610424
-777.7008644789457
-480.3222482521087
-389.9019948653877
-488.5979468822479
-653.9166619684547
-801.1773522906005
-863.839616023004
-790.7310873344541
-654.7412267867476
-489.68248306401074
-374.1101175080985
-482.47573670744896
-781.4571523498744
-1248.128779862076
-1646.3760310076177
-2655.0343647673726
-3631.696988021955
-2175.466327322647
-1435.3465231899172
-460.2057538628578
392.70384393259883
1049.8930975459516
1343.692420044914
1367.9923107810318
1334.8338354546577
1299.3659769315273
1316.6441310252994
1386.095088781789
1347.7861642520875
1055.7485337853432
402.5812338292599
-445.1733730006963
-1430.6059361472726
-2178.306105684489
-3624.199336176738
-4533.657375507057
-2710.2564709447324
-1721.8628282453865
-326.1242175884545
1065.6756190992892
2455.7217915318906
3427.3381489776075
3842.581144059077
3956.160896819085
3895.5574395302683
3957.7604781761765
3839.058305779472
3430.0691860150546
2456.8469222392887
1081.2966903354973
-337.70500150695443
-1723.6611473988742
-2718.86496873945
-4540.765858847648
-5326.940570337698
-3232.685743926093
-2068.025885956362
-425.56664691865444
1372.4054597243667
3454.3165893778205
5551.458497079089
6877.410964375362
7171.969742432237
7438.604701800272
7157.097787262872
6884.884108508006
5566.056200323626
3445.624248770997
1402.8363751526922
-422.05071250349283
-2086.6064630523324
-3250.650144099258
-5310.722109164111
-5916.243038864806
-3649.4292297028005
-2381.8337719459087
-577.2126069031656
1465.5848395098
3921.618661221117
6904.126686993986
10213.600149823353
11885.962236143649
11223.650347787887
11867.017263546586
10243.766700264066
6923.527905851603
3903.0155634796247
1473.019791760482
-566.9565107030794
-2382.5352596640587
-3648.6168172722682
-5901.534575412981
-6277.520544262603
-3925.0674901548773
-2613.1142643019557
-711.6780752483755
1439.5165155995637
4033.79676072672
7224.450015423819
11963.745828654617
17950.124862311408
21770.93657715246
17966.23482005112
11929.321288206615
7250.087021512911
4034.1814862787724
1432.7288208194077
-695.2486343886703
-2585.749185649678
-3915.7398721305653
-6277.181568983942
-6400.036018345505
-4012.40926399827
-2664.442921116948
-765.801572503522
1392.8636770229787
4005.791867211461
7568.723530933261
11313.71887804009
21800.78113281168
24641.353612352163
21786.541699949652
11324.856374489143
7541.309514473192
4003.387180853635
1400.3797955960035
-776.0928364517167
-2708.0474234055728
-4010.9937351886183
-6397.206741741858
-6273.069876352325
-3919.3752738852054
-2628.324755763635
-711.950867684558
1431.9148464389145
4040.97877288796
7238.534341178834
11929.170935152099
17940.321751615033
21789.531990493648
17960.38573259674
11901.37503113877
7232.284944070503
4040.096428005956
1438.6602630829439
-707.3491369951516
-2613.971182069741
-3934.784685031511
-6249.773175412789
-5937.072442611679
-3655.5590354017913
-2376.2977354507893
-548.8793941251934
1462.0987189318985
3895.167780097574
6913.805822215974
10213.197245558724
11894.363776385784
11215.71095411107
11886.354496796615
10211.637169960886
6910.616060530767
3934.0898433187976
1472.706291104667
-570.7637614160776
-2406.483095854521
-3630.5226247850806
-5909.18320417963
-5335.302759319544
-3215.5446202643216
-2087.7267638482153
-413.13753009215
1389.424634706229
3464.865876035765
5565.2993192747235
6860.356438400224
7178.19358116854
7446.588944250718
7136.611060281284
6884.482955740765
5564.42182018701
3466.2537992242724
1392.0663406224921
-412.218988571316
-2074.3283851770684
-3252.524496663362
-5321.258998003788
-4534.278057187796
-2706.1739646773785
-1708.363763852045
-342.0670797545463
1071.4459063746035
2449.843924537301
3432.7720944285393
3830.8818368222564
3936.0790282040834
3899.0615561390296
3953.284805363044
3828.1014075390995
3438.378876312636
2460.205642887391
1069.8678415464237
-331.10860925912857
-1723.7451682789251
-2702.351238344796
-4552.274185640737
-3612.321945246309
-2178.4307917952538
-1441.2112915627658
-468.49602608941495
407.93843954615295
1028.4752694424242
1326.1120817437768
1372.3596951877698
1319.9239967530593
1320.5851036449894
1325.925863143988
1403.1270043151453
1310.9556016735733
1038.6096339235082
421.086480374448
-469.95016793720424
-1436.632751797326
-2176.096257953439
-3621.1927980156615
-2660.3380250893533
-1643.068812476471
-1242.448962137103
-759.142205234617
-474.8005618415773
-388.3921047113836
-469.2311793323606
-655.0685973633081
-787.7034555422142
-878.626497217454
-815.131525744684
-652.265789876692
-466.1040680408478
-403.9593765735626
-497.60122810769826
-753.5495220595039
-1249.784838997759
-1663.5833298321813
-2661.6862749466673
-1761.066294129938
-1263.06853585504
-1221.0477065779269
-1260.3486057929695
-1478.4337117299438
-1797.3434611745179
-2151.2131968904287
-2492.426948999986
-2732.4148202259094
-2797.3103798916563
-2735.900077925995
-2495.073065296747
-2137.3898859508336
-1797.1595831979066
-1476.9845600067638
-1262.5053679682314
-1239.4206768823788
-1257.5345795082394
-1740.3460682872683
-963.6009513605386
-948.9062126073986
-1262.1634759735316
-1719.6655419711024
-2223.8173303082585
-2800.2126643285155
-3335.9928629510105
-3772.4894134569913
-4031.54699625168
-4143.631844793446
-4027.52553335391
-3759.7282454725355
-3343.4801736185327
-2814.8434396623634
-2207.3201322536916
-1688.2132435566746
-1294.3704535663128
-922.3078007437289
-1001.3856766519602
-517.0408120471984
-984.5881741121411
-1783.1320345718414
-2723.998779885471
-3694.151567870751
-4644.337615352124
-5434.927873964421
-6026.363697202876
-6439.993837847374
-6558.736618373543
-6432.182864642702
-6047.6320508355275
-5416.397578579374
-4628.30617000768
-3697.8782657948323
-2718.941808633972
-1787.4212441616692
-987.4444199919235
-552.5698417149251
513.8037536554039
981.7344781141728
1772.164125526324
2715.7313299346715
3703.8157309684902
4615.6235710941255
5416.158061293885
6047.48753843829
6425.732002140954
6563.590414261445
6412.244808148593
6050.641536874697
5428.262768376619
4628.566160077229
3689.4873720109463
2721.9189501348883
1788.4792782627046
999.6054773703218
525.480494858697
967.6678522825241
961.9315932281315
1259.3104529194534
1702.025160400197
2226.982013847679
2805.864079589024
3331.093805519864
3763.724547760561
4023.415999023244
4140.281959664077
4047.68779046461
3777.1853971462697
3326.7571746576577
2801.215531989932
2254.840478135273
1701.477236269042
1262.3494146205485
946.9061530698091
999.1179289333522
1760.0027262568474
1250.684460569173
1237.0404325090349
1276.8040420208126
1474.8190495818853
1770.4739870596677
2156.496820634231
2490.9125965517014
2739.3771874252707
2792.982742080465
2721.9144106004387
2485.9573191720992
2157.4702385421842
1773.6496243719012
1488.8641998823732
1282.775786118582
1238.717931797728
1265.8383247181773
1764.0328204128891
2659.4928347151726
1688.2075849846005
1227.5563172586262
769.339631639421
488.5594904217869
399.9576100446284
478.75062824226916
669.5811715722084
807.8863626681268
854.8214439135045
794.5533386301249
638.4772973302752
484.42287969216704
374.8724180869758
484.02948790974915
753.0361806452274
1246.7202875874937
1648.521827319637
2648.0042227562517
3610.993504108861
2162.711774742231
1414.2650259882212
451.8486810438335
-385.1386102773249
-1047.9824643880129
-1328.9633432105184
-1398.3946321085095
-1322.3671878390014
-1311.3455540779978
-1329.901133397594
-1380.3204141687602
-1332.6236681696028
-1033.3756383340806
-412.61532663181424
464.91804039105773
1438.2755408734083
2185.330782232806
3632.2234774362296
4551.636214310303
2712.3193227127194
1711.549335891381
343.0615817271173
-1053.143516967073
-2452.834846863523
-3426.9765437114984
-3859.542038332671
-3959.520822606981
-3891.123889511451
-3962.0243595782667
-3831.2158581763506
-3425.829809654504
-2462.5542324967682
-1092.7071269582957
341.01018910482526
1714.8507470227778
2721.823821350932
4520.62964634411
5331.167279742658
3233.5051120705903
2083.4725954905152
425.2792203053832
-1386.6546254381537
-3442.977013995871
-5553.781854726374
-6847.977649308741
-7168.675178965554
-7436.828613018617
-7174.641752466559
-6883.70207535848
-5557.450857762247
-3469.057013873011
-1390.4338136576116
414.88645172212273
2082.6238401196897
3237.4799274643883
5324.990435314365
5908.5631674565375
3644.941068030894
2392.463632121682
575.1364148817956
-1461.7521163634956
-3904.9036554526538
-6908.317335823551
-10231.219865903258
-11876.583671947941
-11220.102226778865
-11875.811405055225
-10238.937143860385
-6920.821922719479
-3896.7731759166345
-1464.4836227800697
573.4639295060188
2394.227421696298
3651.706824351102
5904.413587841205
6282.465342506766
3920.386195100844
2618.618437299505
709.9042774252594
-1418.6025755926967
-4025.0707414336503
-7232.779401931912
-11944.329017670825
-17957.23317977786
-21774.66131870076
-17925.819495096803
-11927.7441812912
-7233.3550829440355
-4031.528911922127
-1433.3438693648204
699.3758333241567
2608.609003962949
3933.263465489261
6271.947501676157
6413.532974109054
4032.1219011303037
2671.263030424714
793.5842346101999
-1421.2994028031826
-4013.5717831980437
-7544.564111923799
-11310.307123087347
-21816.157270491123
-24680.65952204168
-21804.569385245442
-11306.63056511525
-7527.0637589795515
-4005.512201745063
-1406.4503064155579
772.5801908131689
2710.8398882420734
4024.9211545549333
6391.5200986927375
6283.496845761314
3924.9506635926664
2611.479169834405
714.5380767192692
-1425.4849051665515
-4038.2331032361835
-7243.754987560213
-11930.427428493276
-17938.242641426623
-21764.186039052904
-17937.251304713078
-11946.629516244866
-7209.310879060999
-4039.1898622075096
-1451.770632237196
717.3566345470026
2611.737549720332
3927.1321772905067
6288.83789628651
5913.562248907983
3662.9603126607835
2387.3538124915212
553.2310895994306
-1459.8405672833323
-3901.3952267151326
-6928.019234653562
-10218.202218176797
-11882.486212574877
-11222.864856792614
-11886.563334203325
-10209.697367670946
-6910.200432084501
-3906.4545113258064
-1455.8675193302333
560.5433589387685
2419.581008112058
3649.7840476185083
5910.087109292857
5318.783584570512
3237.7191936559975
2096.0705406554043
418.87187365442514
-1396.5268942676485
-3472.937173170969
-5547.9752625525
-6882.8118144553155
-7149.632211409509
-7449.600084448233
-7132.348946706392
-6882.760613573715
-5558.410933833569
-3475.9147423142567
-1381.60793664027
402.46108700800687
2081.7547212308273
3232.5539783565328
5306.572937996127
4532.882530614734
2709.2593325302005
1715.798975335434
338.1569115743041
-1037.1957895103842
-2448.3129667583853
-3430.3621568549424
-3821.348365332
-3945.7667391188443
-3882.0896838894114
-3960.3161510014907
-3825.5819088676944
-3437.8174313642085
-2444.845655426383
-1067.649322250858
347.47367788944393
1704.6603110558353
2707.7634261539206
4558.18341994565
3621.2303641289473
2163.987859841436
1441.0651772413403
451.81229845806956
-413.37226398848
-1038.0523783247918
-1326.3939889315516
-1388.2904095407575
-1329.6043474534526
-1309.958903344348
-1317.7588948262855
-1415.0918771484867
-1336.9019547151402
-1025.4741190345958
-406.6210769088939
451.18271546578035
1442.3269304614514
2168.1742187244818
3641.5982197155245
2663.342102330178
1669.0216713305563
1241.7181657627225
764.4123426824808
470.7024674285203
396.4857477545738
479.0181685993448
664.7526153568178
804.2813696339726
869.2804459137842
818.9034120021388
650.4013936445117
494.53511773981154
389.3056271392852
490.5732627646066
771.6166316401213
1247.2418285589665
1651.7605191227049
2652.933378401678
1747.6384968627244
1228.9596701394767
1228.0462489798665
1266.9531781245023
1494.136433424428
1795.0192715208977
2152.886575001292
2513.8759849863127
2718.9841718059033
2809.398846069351
2723.073859902099
2501.984491219744
2161.894262915477
1789.5842281947844
1473.7881675311364
1268.486892286688
1246.982920765411
1241.1872775543015
1748.115094433073
951.6010079011321
935.8277808334678
1290.646592490375
1713.3003780059516
2223.382162006572
2802.0695294272155
3329.7039624173194
3772.2821513190866
4035.714453501627
4157.709843858145
4017.1619341457263
3779.371983844787
3322.9228324191645
2812.0751332300715
2218.323051881045
1695.5636985376477
1275.0063755805604
958.4633692698553
981.6928032883443
525.6554784812033
1011.819938423112
1765.8094321489334
2727.8521911129355
3705.892518306151
4631.713605856523
5434.783822263591
6041.391004932113
6428.4162164079025
6550.27548235096
6446.439152823761
6041.989914738573
5410.281672182493
4649.608210759703
3689.5601922525093
2717.578554836102
1789.7739044756163
997.2562475381419
534.8373656097101
-226.80935678258538
-79.8044473156333
65.41325035318732
212.29410437121987
-326.2701691929251
-111.0173938702792
101.54166559316218
316.66825361177325
-475.9350063931197
-160.9042100943625
150.09520824812353
465.05102369748056
-632.8585578706115
-199.05382525920868
229.56099968776107
664.1470024231821
-821.5034176129848
-270.14008469320834
274.0588693488389
825.5381341166794
-999.0653574187309
-327.2320253010839
335.93194014951587
1008.0935424678028
-1127.9747950658202
-361.2129788789898
395.7838447075337
1163.4096985142678
-1255.501227164641
-409.993356782943
424.29239386692643
1269.8037770204246
-1350.818132614717
-450.49376281537116
437.8282015696168
1337.9997169859707
-1360.4346690755337
-446.3216825276613
455.97735485993326
1370.7166191413999
-1358.5405448414385
-461.0211806166917
424.3783175405115
1321.494704650715
-1242.2952068205923
-393.25135029293597
445.0774399228394
1295.2497644722462
-1132.1908446140587
-353.86989870481193
414.62068787775934
1193.7678153552115
-977.5821867398918
-310.5436133444309
347.83659183233976
1015.1721144076437
-810.8682494908571
-254.78503591008484
294.5138329323381
851.5137146674097
-633.9911911785603
-201.47998153977096
225.664924075827
658.5895140357316
-490.9989489093423
-170.03368606604636
146.75140727125108
467.3399179726839
-356.36871556937695
-138.83565653301775
75.44568991661072
291.7679939828813
-225.93234577029943
-71.82603329606354
80.79608679749072
235.4906662236899
-256.1447594165802
-98.94974084757268
56.235451525077224
213.008793419227
-366.05566303245723
-136.0457109156996
91.0272030569613
320.5196171980351
-498.5638908855617
-167.13131093420088
160.31699806079268
491.75911499746144
-684.303597966209
-230.77670831046999
216.9857917446643
670.1018880717456
-875.1817599218339
-290.5009239539504
286.71024723537266
870.8585936706513
-1045.824344985187
-338.7944181971252
359.5277400743216
1066.7223445829004
-1193.6288319602609
-380.2902128826827
423.2013213513419
1237.1652146661654
-1337.9150598607957
-445.074330387637
436.5750550311059
1329.3836772730574
-1401.8507167305797
-459.8216229295358
470.3442824538797
1412.341201924719
-1439.007558150217
-472.52929686382413
481.8639262076467
1448.3609754815698
-1408.8956640185788
-460.0688312705606
477.2281609401107
1426.7782630585134
-1312.4540922734886
-418.4806942110881
464.74734295811504
1359.6221164129674
-1202.06305505801
-388.2119063939899
415.7129115043208
1229.9805520083755
-1038.8088075830601
-337.83998556341976
354.66195054212585
1056.1798940557055
-847.4395218412392
-271.41700960462913
297.64345288602635
874.0888889050111
-672.8773465659469
-219.2983550815843
228.93145957496017
682.8959189429879
-495.78409975674003
-171.42136779264547
148.84811678598635
472.9329938357696
-354.25264301756397
-131.52615349646658
88.0508565318305
309.7577239435632
-205.3719671270228
-56.01586476434022
91.94843849382596
241.99527052463964
-220.00933135964442
-73.2284205328906
71.63018735544756
218.09772763581714