# vtk DataFile Version 2.0
Generated Volume Mesh
ASCII
DATASET UNSTRUCTURED_GRID
POINTS 177 float
0.0 -0.009999999776482582 0.0
0.05999999865889549 -0.009999999776482582 0.0
0.05999999865889549 0.009999999776482582 0.0
0.0 0.009999999776482582 0.0
0.004999999888241291 -0.009999999776482582 0.0
0.009999999776482582 -0.009999999776482582 0.0
0.014999999664723873 -0.009999999776482582 0.0
0.019999999552965164 -0.009999999776482582 0.0
0.02500000037252903 -0.009999999776482582 0.0
0.029999999329447746 -0.009999999776482582 0.0
0.03500000014901161 -0.009999999776482582 0.0
0.03999999910593033 -0.009999999776482582 0.0
0.04500000178813934 -0.009999999776482582 0.0
0.05000000074505806 -0.009999999776482582 0.0
0.054999999701976776 -0.009999999776482582 0.0
0.0024999999441206455 -0.009999999776482582 0.0
0.007499999832361937 -0.009999999776482582 0.0
0.012500000186264515 -0.009999999776482582 0.0
0.017500000074505806 -0.009999999776482582 0.0
0.02250000089406967 -0.009999999776482582 0.0
0.027499999850988388 -0.009999999776482582 0.0
0.032499998807907104 -0.009999999776482582 0.0
0.03750000149011612 -0.009999999776482582 0.0
0.042500000447034836 -0.009999999776482582 0.0
0.04749999940395355 -0.009999999776482582 0.0
0.05249999836087227 -0.009999999776482582 0.0
0.057500001043081284 -0.009999999776482582 0.0
0.05999999865889549 -0.004999999888241291 0.0
0.05999999865889549 -2.538941279439655e-14 0.0
0.05999999865889549 0.004999999888241291 0.0
0.05999999865889549 -0.007499999832361937 0.0
0.05999999865889549 -0.0024999999441206455 0.0
0.05999999865889549 0.0024999999441206455 0.0
0.05999999865889549 0.007499999832361937 0.0
0.054999999701976776 0.009999999776482582 0.0
0.05000000074505806 0.009999999776482582 0.0
0.04500000178813934 0.009999999776482582 0.0
0.03999999910593033 0.009999999776482582 0.0
0.03500000014901161 0.009999999776482582 0.0
0.029999999329447746 0.009999999776482582 0.0
0.02500000037252903 0.009999999776482582 0.0
0.019999999552965164 0.009999999776482582 0.0
0.014999999664723873 0.009999999776482582 0.0
0.009999999776482582 0.009999999776482582 0.0
0.004999999888241291 0.009999999776482582 0.0
0.057500001043081284 0.009999999776482582 0.0
0.05249999836087227 0.009999999776482582 0.0
0.04749999940395355 0.009999999776482582 0.0
0.042500000447034836 0.009999999776482582 0.0
0.03750000149011612 0.009999999776482582 0.0
0.032499998807907104 0.009999999776482582 0.0
0.027499999850988388 0.009999999776482582 0.0
0.02250000089406967 0.009999999776482582 0.0
0.017500000074505806 0.009999999776482582 0.0
0.012500000186264515 0.009999999776482582 0.0
0.007499999832361937 0.009999999776482582 0.0
0.0024999999441206455 0.009999999776482582 0.0
0.0 0.004999999888241291 0.0
0.0 2.538941279439655e-14 0.0
0.0 -0.004999999888241291 0.0
0.0 0.007499999832361937 0.0
0.0 0.0024999999441206455 0.0
0.0 -0.0024999999441206455 0.0
0.0 -0.007499999832361937 0.0
0.004999999888241291 -0.004999999888241291 0.0
0.004999999888241291 2.1157554874751128e-14 0.0
0.004999999888241291 0.004999999888241291 0.0
0.009999999776482582 -0.004999999888241291 0.0
0.009999999776482582 1.6926564316843695e-14 0.0
0.009999999776482582 0.004999999888241291 0.0
0.014999999664723873 -0.004999999888241291 0.0
0.014999999664723873 1.2694706397198274e-14 0.0
0.014999999664723873 0.004999999888241291 0.0
0.019999999552965164 -0.004999999888241291 0.0
0.019999999552965164 8.462848477552853e-15 0.0
0.019999999552965164 0.004999999888241291 0.0
0.02500000037252903 -0.004999999888241291 0.0
0.02500000037252903 4.231857919645421e-15 0.0
0.02500000037252903 0.004999999888241291 0.0
0.029999999329447746 -0.004999999888241291 0.0
0.029999999329447746 0.0 0.0
0.029999999329447746 0.004999999888241291 0.0
0.03500000014901161 -0.004999999888241291 0.0
0.03500000014901161 -4.231857919645421e-15 0.0
0.03500000014901161 0.004999999888241291 0.0
0.03999999910593033 -0.004999999888241291 0.0
0.03999999910593033 -8.462848477552853e-15 0.0
0.03999999910593033 0.004999999888241291 0.0
0.04500000178813934 -0.004999999888241291 0.0
0.04500000178813934 -1.2694706397198274e-14 0.0
0.04500000178813934 0.004999999888241291 0.0
0.05000000074505806 -0.004999999888241291 0.0
0.05000000074505806 -1.692623905619195e-14 0.0
0.05000000074505806 0.004999999888241291 0.0
0.054999999701976776 -0.004999999888241291 0.0
0.054999999701976776 -2.1157663294968376e-14 0.0
0.054999999701976776 0.004999999888241291 0.0
0.004999999888241291 -0.007499999832361937 0.0
0.0024999999441206455 -0.004999999888241291 0.0
0.004999999888241291 -0.0024999999441206455 0.0
0.0024999999441206455 2.3273483834573838e-14 0.0
0.004999999888241291 0.0024999999441206455 0.0
0.0024999999441206455 0.004999999888241291 0.0
0.004999999888241291 0.007499999832361937 0.0
0.009999999776482582 -0.007499999832361937 0.0
0.007499999832361937 -0.004999999888241291 0.0
0.009999999776482582 -0.0024999999441206455 0.0
0.007499999832361937 1.904205959579741e-14 0.0
0.009999999776482582 0.0024999999441206455 0.0
0.007499999832361937 0.004999999888241291 0.0
0.009999999776482582 0.007499999832361937 0.0
0.014999999664723873 -0.007499999832361937 0.0
0.012500000186264515 -0.004999999888241291 0.0
0.014999999664723873 -0.0024999999441206455 0.0
0.012500000186264515 1.4810635357020985e-14 0.0
0.014999999664723873 0.0024999999441206455 0.0
0.012500000186264515 0.004999999888241291 0.0
0.014999999664723873 0.007499999832361937 0.0
0.019999999552965164 -0.007499999832361937 0.0
0.017500000074505806 -0.004999999888241291 0.0
0.019999999552965164 -0.0024999999441206455 0.0
0.017500000074505806 1.0578777437375564e-14 0.0
0.019999999552965164 0.0024999999441206455 0.0
0.017500000074505806 0.004999999888241291 0.0
0.019999999552965164 0.007499999832361937 0.0
0.02500000037252903 -0.007499999832361937 0.0
0.02250000089406967 -0.004999999888241291 0.0
0.02500000037252903 -0.0024999999441206455 0.0
0.02250000089406967 6.347353198599137e-15 0.0
0.02500000037252903 0.0024999999441206455 0.0
0.02250000089406967 0.004999999888241291 0.0
0.02500000037252903 0.007499999832361937 0.0
0.029999999329447746 -0.007499999832361937 0.0
0.027499999850988388 -0.004999999888241291 0.0
0.029999999329447746 -0.0024999999441206455 0.0
0.027499999850988388 2.1159289598227105e-15 0.0
0.029999999329447746 0.0024999999441206455 0.0
0.027499999850988388 0.004999999888241291 0.0
0.029999999329447746 0.007499999832361937 0.0
0.03500000014901161 -0.007499999832361937 0.0
0.032499998807907104 -0.004999999888241291 0.0
0.03500000014901161 -0.0024999999441206455 0.0
0.032499998807907104 -2.1159289598227105e-15 0.0
0.03500000014901161 0.0024999999441206455 0.0
0.032499998807907104 0.004999999888241291 0.0
0.03500000014901161 0.007499999832361937 0.0
0.03999999910593033 -0.007499999832361937 0.0
0.03750000149011612 -0.004999999888241291 0.0
0.03999999910593033 -0.0024999999441206455 0.0
0.03750000149011612 -6.347353198599137e-15 0.0
0.03999999910593033 0.0024999999441206455 0.0
0.03750000149011612 0.004999999888241291 0.0
0.03999999910593033 0.007499999832361937 0.0
0.04500000178813934 -0.007499999832361937 0.0
0.042500000447034836 -0.004999999888241291 0.0
0.04500000178813934 -0.0024999999441206455 0.0
0.042500000447034836 -1.0578777437375564e-14 0.0
0.04500000178813934 0.0024999999441206455 0.0
0.042500000447034836 0.004999999888241291 0.0
0.04500000178813934 0.007499999832361937 0.0
0.05000000074505806 -0.007499999832361937 0.0
0.04749999940395355 -0.004999999888241291 0.0
0.05000000074505806 -0.0024999999441206455 0.0
0.04749999940395355 -1.4810472726695112e-14 0.0
0.05000000074505806 0.0024999999441206455 0.0
0.04749999940395355 0.004999999888241291 0.0
0.05000000074505806 0.007499999832361937 0.0
0.054999999701976776 -0.007499999832361937 0.0
0.05249999836087227 -0.004999999888241291 0.0
0.054999999701976776 -0.0024999999441206455 0.0
0.05249999836087227 -1.9041951175580163e-14 0.0
0.054999999701976776 0.0024999999441206455 0.0
0.05249999836087227 0.004999999888241291 0.0
0.054999999701976776 0.007499999832361937 0.0
0.057500001043081284 -0.004999999888241291 0.0
0.057500001043081284 -2.3273538044682462e-14 0.0
0.057500001043081284 0.004999999888241291 0.0
CELLS 48 432
8 0 4 64 59 15 97 98 63
8 59 64 65 58 98 99 100 62
8 58 65 66 57 100 101 102 61
8 57 66 44 3 102 103 56 60
8 4 5 67 64 16 104 105 97
8 64 67 68 65 105 106 107 99
8 65 68 69 66 107 108 109 101
8 66 69 43 44 109 110 55 103
8 5 6 70 67 17 111 112 104
8 67 70 71 68 112 113 114 106
8 68 71 72 69 114 115 116 108
8 69 72 42 43 116 117 54 110
8 6 7 73 70 18 118 119 111
8 70 73 74 71 119 120 121 113
8 71 74 75 72 121 122 123 115
8 72 75 41 42 123 124 53 117
8 7 8 76 73 19 125 126 118
8 73 76 77 74 126 127 128 120
8 74 77 78 75 128 129 130 122
8 75 78 40 41 130 131 52 124
8 8 9 79 76 20 132 133 125
8 76 79 80 77 133 134 135 127
8 77 80 81 78 135 136 137 129
8 78 81 39 40 137 138 51 131
8 9 10 82 79 21 139 140 132
8 79 82 83 80 140 141 142 134
8 80 83 84 81 142 143 144 136
8 81 84 38 39 144 145 50 138
8 10 11 85 82 22 146 147 139
8 82 85 86 83 147 148 149 141
8 83 86 87 84 149 150 151 143
8 84 87 37 38 151 152 49 145
8 11 12 88 85 23 153 154 146
8 85 88 89 86 154 155 156 148
8 86 89 90 87 156 157 158 150
8 87 90 36 37 158 159 48 152
8 12 13 91 88 24 160 161 153
8 88 91 92 89 161 162 163 155
8 89 92 93 90 163 164 165 157
8 90 93 35 36 165 166 47 159
8 13 14 94 91 25 167 168 160
8 91 94 95 92 168 169 170 162
8 92 95 96 93 170 171 172 164
8 93 96 34 35 172 173 46 166
8 14 1 27 94 26 30 174 167
8 94 27 28 95 174 31 175 169
8 95 28 29 96 175 32 176 171
8 96 29 2 34 176 33 45 173
CELL_TYPES 48
23
23
23
23
23
23
23
23
23
23
23
23
23
23
23
23
23
23
23
23
23
23
23
23
23
23
23
23
23
23
23
23
23
23
23
23
23
23
23
23
23
23
23
23
23
23
23
23
POINT_DATA 177
SCALARS stress11 float
LOOKUP_TABLE default
285391.83302521706
-80912229.00655937
80911986.0103283
-286378.3818809986
-3014202.4031779766
-11330926.203565925
-17956516.53246355
-23913026.389113188
-29875689.992671013
-35822832.27522802
-41768791.27129555
-47717156.13468456
-53585641.43109226
-58779939.99020767
-65404548.6744442
-1238763.4649546146
-7752037.771947622
-14760324.81970042
-20907205.066185474
-26897042.946266174
-32845697.44556904
-38795602.19055748
-44735730.11883354
-50669046.49649906
-56398565.44453716
-60868933.17873573
-72025442.29037476
-31574043.016853333
-141.1638298034668
31573694.17306137
-54917533.99078941
-14881822.978162766
14881538.96055603
54917148.513277054
65404330.96531868
58779559.61567688
53585345.34671497
47716633.39131355
41769016.42409611
35823334.92654991
29875819.03083992
23913091.29107952
17956404.39742589
11331160.5858289
3014214.050195217
72024939.4012909
60868571.25078964
56398318.83288288
50668376.06871128
44735597.18932533
38795644.059988976
32845928.589367867
26896642.88137245
20907007.24026227
14760469.957909703
7752152.713732958
1237571.5936000347
275636.05822086334
-207.6745524406433
-274858.205283165
-1480126.7775669098
7758576.161118031
-7757926.271088123
1480317.2181487083
-5583750.268707514
-381.4400670528412
5583719.1564490795
-6269466.8373885155
264.8367005586624
6269324.682237148
-9055318.919675112
-201.31309205293655
9055563.21344924
-11998166.111467123
462.94029712677
11998578.816719055
-15004716.176403046
146.16943502426147
15005551.540889263
-18005997.393088818
-4.834415912628174
18006185.496814728
-21007558.73534584
-102.97335815429688
21007544.870894432
-24007767.600458145
17.102368354797363
24007652.725297928
-27056504.518380165
-75.42671298980713
27056251.469604492
-30298824.607019424
-139.4302864074707
30298625.657432556
-34640721.805490494
-122.97395515441895
34640403.396261215
-4073460.913433552
-2105657.864631653
-3806260.1448936462
-286.9509029388428
3805512.1328265667
2105791.6488084793
4073679.190478325
-8909008.433024168
-5184965.590560913
-3820064.6540397406
-37.474058389663696
3820387.2286798954
5184909.939288616
8908758.343375564
-13442818.857784867
-7758613.024400979
-4572224.228787661
158.61585199832916
4572000.563154101
7758369.1491653025
13442958.809592009
-18002405.256109953
-10521747.767831564
-6014685.145608187
103.99421060085297
6015557.879251003
10522281.553295493
18002446.120123863
-22501278.298386574
-13508255.167111874
-7500005.0815291405
235.81028175354004
7500320.681005478
13508549.945942879
22501719.092428207
-27003657.169768333
-16504796.69431591
-9001605.472061157
103.70575952529907
9001746.368752956
16505234.391829014
27003715.9535141
-31504989.987416267
-19507079.9583683
-10500385.487415314
-89.80307674407959
10500199.075872421
19507003.0130167
31505057.556430817
-35990878.86760712
-22511175.879476547
-12023056.258691788
-25.2011137008667
12023107.592882156
22510964.12111473
35990614.74420929
-40500521.24081421
-25518836.498823166
-13499231.583374023
-47.29812812805176
13499032.342206001
25518663.023952484
40500359.10608864
-45247136.93704033
-28717291.4272871
-15340657.786523819
-98.63536167144775
15340464.877742767
28717120.375641823
45246857.61598587
-49963044.96559334
-31664850.850860596
-16878786.577251434
-123.98774528503418
16878451.66558647
31664521.7131958
49962631.11327171
-32209862.04206276
-120.34767723083496
32209557.040872574
SCALARS stress22 float
LOOKUP_TABLE default
2048838.835707903
-30274595.144088745
30274436.40820694
-2047764.8926563263
407758.04932558537
92494.76109755039
-76680.22368240356
-4984.829412460327
-22941.173221588135
-26175.992441177368
-26458.261547088623
-82090.78430175781
75602.85359954834
-475979.99228286743
1379012.0567054749
-451160.06252765656
794.2549780607224
-17093.3775742054
-25184.46559715271
-14614.479610443115
-23836.344638824463
-26008.069528579712
-53103.96572494507
3895.8168964385986
-409477.0526008606
1675056.124988556
-8338224.816730499
-12414073.170028687
-71.92238235473633
12413883.221572876
-21178846.813468933
-6194080.298404694
6193944.997028351
21178671.502830505
-1378888.0248146057
475778.84900283813
-75646.30249404907
82080.23941993713
26768.059356689453
26713.418384552002
22919.13665008545
7094.351190567017
76154.7246260643
-91459.96037018299
-409769.1789755821
8338176.638011932
-1675073.3388786316
409432.29555130005
-4186.723545074463
53298.74641227722
26038.192987442017
23578.497898101807
14673.554445266724
26157.693902015686
17500.83014678955
-1767.220780968666
449304.17394018173
7816990.311491966
-323.154088973999
-7814659.882839203
243487.1868338585
20536639.221387863
-20535174.253647804
-241667.97527837753
-898125.443295002
1021.3739905357361
900815.3032007217
523337.38934093714
300.6752828359604
-521703.63624197245
80890.36540222168
1511.0818355083466
-80749.31790208817
19855.908401489258
-309.1348123550415
-19847.010192871094
795.7864627838135
-360.4742841720581
318.0009717941284
342.8803234100342
497.95084381103516
35.707801818847656
1320.2847709655762
451.47534370422363
-453.00154304504395
15197.705142974854
67.2594051361084
-14895.257656097412
31724.31785964966
79.83137893676758
-31706.47487258911
354798.7301597595
15.127784729003906
-354773.0422592163
-3057869.571117401
44.465843200683594
3057949.778945923
178476.08886027336
-1363710.3598146439
-222374.06518650055
378.874990940094
223903.0727596283
1365895.4140872955
-177836.60955238342
105685.86039632559
201080.48526263237
108467.29624569416
813.0486643314362
-107074.6979585886
-198854.59665441513
-104655.53795266151
55974.9046626091
242532.54470980167
76170.6885547638
1124.8228398561478
-74813.84437417984
-242079.5870989561
-56215.93928146362
4527.639470100403
32439.60686826706
7515.548282623291
511.4779853820801
-7335.569585800171
-32089.035706996918
-4338.159220695496
835.3467712402344
4585.486991882324
1165.3900060653687
-422.3385601043701
-1511.6225061416626
-4342.36616230011
-324.64426040649414
-752.1274681091309
632.3077640533447
-283.1292381286621
68.95247459411621
1167.2605171203613
-43.983259201049805
610.7809982299805
771.1990451812744
-128.05812072753906
1712.5078449249268
524.0843143463135
-938.5278873443604
500.54664611816406
-322.3180751800537
1814.5392303466797
7632.380661010742
2270.588779449463
117.07218170166016
-1808.775333404541
-7168.20888710022
-1522.3277168273926
50042.387508392334
3689.815553665161
60018.65317153931
134.46090507507324
-59881.429054260254
-3494.184066772461
-49887.3000793457
-52192.44339752197
239456.30417633057
-58213.80097961426
77.34624862670898
58316.59889602661
-239310.0821685791
52182.57466888428
-1136490.4096946716
-700514.7695808411
-852435.2198600769
49.77018737792969
852355.0450057983
700573.4841308594
1136414.5197906494
-4184301.2255096436
-13.155643463134766
4184298.6324386597
SCALARS stress12 float
LOOKUP_TABLE default
-761119.6370269135
15186622.037004352
15186563.169621825
-762356.9484502524
744838.3471189961
432170.0240330994
408180.35203902423
357479.8280875012
361193.2431979701
362344.4206038788
368760.1751042381
372020.9962634258
389139.66573658586
102691.20980469882
-155503.04979741573
204581.9626184553
588717.7689710632
327109.92913169414
297987.1483144462
287242.17299506813
289259.6148344949
292397.66710976884
300859.867872484
295895.26058074087
340921.87646630406
-220033.3635642454
6889787.14820388
1815000.544813715
-985120.3595784158
1814953.5755039006
8217485.840017676
-381126.1867241934
-381137.2116979733
8217422.55089201
-155399.57300242782
102683.95426096022
389193.9551254809
371996.9491658099
369060.1853523068
362608.00632087886
361291.750909362
357327.26155050844
408567.379188098
432440.32369244844
745002.4717294127
6889796.533317044
-219993.11599178612
340829.9729876071
295856.4535084367
300878.8377137147
292527.61013350263
289323.39365198463
287100.37936299294
297923.9701038301
327177.53514187783
588296.8482243791
204141.70989765972
1892793.7903875783
13498991.193481386
1892535.8155169338
-164939.38726340234
7795032.658511408
7794849.982211724
-164284.49981179833
5929883.412376314
3437906.180874862
5929792.0790769085
4876519.2472601235
5557611.045111977
4876294.488119885
4694198.22941038
6056777.195434332
4693969.710285105
4656680.289396435
6149280.1737154275
4656576.3200265765
4653279.742973156
6158554.7746910155
4653406.598178357
4652638.390590243
6157847.112773888
4652817.372472703
4652517.578506265
6158458.149258107
4652496.828715328
4646822.564912289
6162654.050194658
4646849.2010747865
4623477.387521435
6249420.430952158
4623533.656576395
4677178.370596945
6283160.959069684
4677209.35832243
5488308.516191572
5874250.273264788
5488323.954731554
3279346.793857008
4310799.254824549
4662169.636087567
7725608.801594652
4662114.0874534175
4310931.2027691975
3279269.9770952687
2838878.227010995
4874051.833060443
5358095.488791496
4841465.526013389
5357941.972827904
4873716.393749252
2838861.61895895
2620036.598202318
4683333.540698081
5503101.541904241
5821741.8586392775
5502940.168463811
4683450.846080698
2620118.873001002
2570293.6999215335
4574807.764719769
5561163.654152513
6014199.982872501
5561088.561631255
4574271.379728757
2570053.654501766
2563365.7595225275
4566133.7240514755
5563087.085877664
6064580.610452503
5563197.72356572
4566080.271926478
2563504.5607838742
2563586.9162494726
4562263.886092879
5563572.061410662
6066091.032419167
5563590.005189311
4562585.666922558
2563680.614114631
2561689.524633661
4561663.3421783
5562859.984201267
6066221.083850931
5562897.365838144
4561674.3602142185
2561775.9039722793
2563975.379988119
4562491.00822264
5567159.254748598
6069982.009277802
5567182.727541387
4562459.120801177
2563947.8246657364
2502055.119918853
4539844.989927664
5596933.975116551
6097612.444614682
5596968.033831101
4539806.27599242
2502087.1366118714
2472163.3353940398
4564736.309860155
5716303.606838629
6186812.28288891
5716318.35083445
4564790.545792703
2472186.724869378
2514463.3825708777
4669658.963293061
5385035.632567182
6104654.678520743
5385034.89727883
4669687.958836079
2514469.770542279
3837012.4371184856
2774782.3783975244
3837010.702515565
SCALARS strain11 float
LOOKUP_TABLE default
-5.39340554853553e-07
-6.182303747230694e-05
6.182287462998602e-05
5.38023980343875e-07
-2.9019498596347722e-06
-1.0347215406722259e-05
-1.631052470442917e-05
-2.1758909027965942e-05
-2.7177930258417472e-05
-3.258856540370558e-05
-3.7999279965830724e-05
-4.3390595523364566e-05
-4.879241592923634e-05
-5.330411506605614e-05
-6.00559574800293e-05
-9.513222816959167e-07
-7.054663628738812e-06
-1.3425228304338285e-05
-1.901573515752182e-05
-2.4470609900089377e-05
-2.988028943755875e-05
-3.529385466086212e-05
-4.068880430367424e-05
-4.6110353879530176e-05
-5.1162997210716464e-05
-5.604399601221319e-05
-6.229123996746645e-05
-2.3890891635009115e-05
-1.0040605010559669e-10
2.3890645925224823e-05
-4.171520748183167e-05
-1.112676763772212e-05
1.1126560995897524e-05
4.1714920708091704e-05
6.0055705924714293e-05
5.330384754525548e-05
4.8792167683834106e-05
4.33901237996007e-05
3.799936532041602e-05
3.25888174363634e-05
2.7178057588268724e-05
2.1758145611671027e-05
1.6310628216235608e-05
1.0347025324218486e-05
2.902744763208509e-06
6.229080502778066e-05
5.604368169130306e-05
5.1162794984960493e-05
4.6109853021042476e-05
4.0688607748560774e-05
3.52938801591454e-05
2.988059958680927e-05
2.447022197209431e-05
1.9015175384736783e-05
1.342520249100255e-05
7.0551484227591695e-06
9.509615388903891e-07
-2.797797407405752e-06
-6.35568505377021e-11
2.7975966175332843e-06
-1.441875416351851e-06
-9.489857815110723e-07
9.490051895757459e-07
1.4413391088993017e-06
-4.7309436244839884e-06
-7.454075693280257e-10
4.7298664710042956e-06
-5.909316239268185e-06
1.237452737935102e-10
5.90854994212916e-06
-8.271887263373683e-06
-7.725010700565527e-10
8.272055260933123e-06
-1.092607490452293e-05
5.418394395271739e-10
1.092644640755835e-05
-1.3654601873258306e-05
2.7362837045014424e-10
1.3654927986341242e-05
-1.6385590900380004e-05
-1.9862493057633615e-10
1.638561489442124e-05
-1.9117392873726797e-05
-2.697799661346544e-10
1.911704308161987e-05
-2.1852996081149414e-05
-1.0721137817587198e-11
2.185277349546529e-05
-2.4633792418603316e-05
-9.969001156257679e-11
2.4633554243043854e-05
-2.771030160889055e-05
-1.327316245195581e-10
2.771010940497751e-05
-3.0330488606828204e-05
-1.2931508390956383e-10
3.0330166378331294e-05
-3.7764553212910187e-06
-1.384301504280417e-06
-3.376970933529678e-06
-4.0888525876768556e-10
3.3756938179864762e-06
1.3835712718806951e-06
3.7764043661854324e-06
-8.148415595213981e-06
-4.7967399115499436e-06
-3.5185610396641512e-06
-3.5122131093225095e-10
3.518311471684913e-06
4.795821370057727e-06
8.147785780350525e-06
-1.2254794948506173e-05
-7.154925583826807e-06
-4.190430524337696e-06
-2.943398573918704e-10
4.189697658790151e-06
7.154526521079441e-06
1.22550163422216e-05
-1.6383954508056384e-05
-9.587442165046684e-06
-5.476294571039354e-06
-1.0487987279865496e-10
5.477018337470257e-06
9.58779060296626e-06
1.6383917596338995e-05
-2.047648948205733e-05
-1.229430107615667e-05
-6.82545871329485e-06
3.7919594455529046e-10
6.825881025976962e-06
1.2294474170623164e-05
2.047669102628807e-05
-2.457303459315615e-05
-1.5019611548942034e-05
-8.191350770201788e-06
6.744660055067395e-11
8.19113330262312e-06
1.5019780651783356e-05
2.457314262866784e-05
-2.8669840375588175e-05
-1.775139209672259e-05
-9.556018746276776e-06
-2.8611619025615057e-10
9.555546706993708e-06
1.775117622560045e-05
2.8669727770796257e-05
-3.275240900933892e-05
-2.0488145111015256e-05
-1.0941866485622906e-05
-6.846691470068292e-11
1.0941733072891496e-05
2.048777319586673e-05
3.275205470627094e-05
-3.687498948012105e-05
-2.3223579352187594e-05
-1.2307708351867806e-05
-9.550459980690353e-11
1.2307473113993609e-05
2.322334628525861e-05
3.687478249584801e-05
-4.115454019673967e-05
-2.6226122315397356e-05
-1.3937295590765947e-05
-1.1998009478834427e-10
1.3937079108196199e-05
2.6225912178210083e-05
4.115428859759232e-05
-4.502313892342056e-05
-2.8541812721653305e-05
-1.5027246052529619e-05
-1.3213536991326822e-10
1.5026972664870191e-05
2.854149188469292e-05
4.5022793336828065e-05
-2.7679094464362402e-05
-1.0448391186534262e-10
2.7678821584192932e-05
SCALARS strain22 float
LOOKUP_TABLE default
1.7531405478275622e-06
4.005889832799092e-06
-4.005936311293756e-06
-1.7517784792018144e-06
1.5465988851159256e-06
4.503231590898254e-06
6.933262423459031e-06
9.321544400231127e-06
1.1630642668787432e-05
1.3947084201939089e-05
1.6265751318456784e-05
1.853498818447409e-05
2.0967198098175224e-05
2.2491036165570022e-05
2.676267758409262e-05
7.256208742808384e-08
3.0240173909036215e-06
5.7409715974673665e-06
8.13089277652444e-06
1.0476548549122507e-05
1.2788131444896322e-05
1.5106616639249185e-05
1.7398611173247494e-05
1.9764476343069395e-05
2.1622816743241402e-05
2.5263183455997984e-05
2.0502134486569817e-05
1.0170706769042914e-06
-1.04695349611994e-11
-1.0171069256582899e-06
2.1450887471297087e-06
1.6729823320779658e-07
-1.6731005426928736e-07
-2.1450974800676925e-06
-2.676247813701571e-05
-2.2491071984166375e-05
-2.0967124115077798e-05
-1.8534794371074734e-05
-1.626555794590097e-05
-1.3946791831287095e-05
-1.1630713955003077e-05
-9.31964909886649e-06
-6.933697123998484e-06
-4.502381473596396e-06
-1.5484333994856582e-06
-2.0501986107406694e-05
-2.5263061738212828e-05
-2.1622762723421535e-05
-1.9764475260935013e-05
-1.7398381730216947e-05
-1.5106606698419775e-05
-1.2788456346897459e-05
-1.0476337918547025e-05
-8.129929641051154e-06
-5.740657585139508e-06
-3.024948011574424e-06
-7.378617352391589e-08
7.0059630392473385e-06
-2.126578357852793e-10
-7.004146040692251e-06
7.988228993606201e-07
1.5662498104079305e-05
-1.5661416791021548e-05
-7.972415298094712e-07
1.3603683943735467e-06
1.0781436680928902e-09
-1.357908520090113e-06
2.921329156560428e-06
1.7030522906627196e-10
-2.9197870790480317e-06
3.6051846463843948e-06
1.4535892092857466e-09
-3.6051517986353514e-06
4.69735382632383e-06
-4.6186818042012745e-10
-4.697506380150172e-06
5.8525633619219836e-06
-3.8506234138757645e-10
-5.851876128200664e-06
7.022650797467757e-06
4.5505386524896663e-10
-7.022380023682419e-06
8.194149623080849e-06
4.509913970052182e-10
-8.193355225461982e-06
9.376860023569897e-06
5.457904093952859e-11
-9.37653955370571e-06
1.058090671038521e-05
1.0204692472981503e-10
-1.0580791072524812e-05
1.2139408471218208e-05
6.809657698836347e-11
-1.2139307128383042e-05
1.0727221303741263e-05
8.843821508452976e-11
-1.0727023336074698e-05
1.7510631665658676e-06
-4.197698664836977e-07
1.2820811568622827e-06
4.5678558938805347e-10
-1.280398018789139e-06
4.2170595267653974e-07
-1.750566234956616e-06
3.5706876830104116e-06
2.2051198571696774e-06
1.5885305246749306e-06
7.54488110443069e-10
-1.5873890329978703e-06
-2.2030725913435188e-06
-3.5696524406968796e-06
5.2936363726802105e-06
3.2465637716169986e-06
1.852482816919578e-06
9.617187382831432e-10
-1.851160781448681e-06
-3.246056167437606e-06
-5.2939106014518456e-06
7.025058321428329e-06
4.133001943552005e-06
2.3525665411331873e-06
4.248915841560674e-10
-2.3527429636382644e-06
-4.132890758087957e-06
-7.024901670048961e-06
8.776259211184904e-06
5.272392837631958e-06
2.926062351659743e-06
-4.762262997143329e-10
-2.926500534794485e-06
-5.272286143544365e-06
-8.775966286087532e-06
1.053074177831577e-05
6.437446292989306e-06
3.5103686584197352e-06
2.2338899827167857e-11
-3.509618679659217e-06
-6.437082029226056e-06
-1.0530893592347601e-05
1.228764715667692e-05
7.607644381969411e-06
4.0967088667138996e-06
5.119533772607321e-10
-4.0959315562565796e-06
-7.607275569882638e-06
-1.2287265772273695e-05
1.4038094356658842e-05
8.786303391251568e-06
4.691058298249284e-06
1.1629314178307482e-10
-4.690657800088607e-06
-8.785799102952949e-06
-1.4037726022535224e-05
1.5840741912336725e-05
9.955703954993983e-06
5.319317888434483e-06
1.408348819509353e-10
-5.319114982400494e-06
-9.955459081171375e-06
-1.5840538176785726e-05
1.7598889391146413e-05
1.1417649666485216e-05
5.929882178443147e-06
1.0891884616448522e-10
-5.929713125435443e-06
-1.1417450361648693e-05
-1.7598788685917535e-05
1.845138256111739e-05
1.171182350981001e-05
5.807011104103782e-06
9.363773992299151e-11
-5.806953310299318e-06
-1.1711642467323452e-05
-1.8451289303764162e-05
8.754131519590064e-06
3.5063795617018556e-11
-8.754016181822949e-06
SCALARS strain12 float
LOOKUP_TABLE default
-1.9789108474467293e-06
3.948521406141179e-05
3.9485062123768415e-05
-1.982127938622894e-06
1.9365795356740783e-06
1.123641959392609e-06
1.06126880397098e-06
9.294473531895576e-07
9.391023709534965e-07
9.4209543919533e-07
9.587763132264712e-07
9.672544833896896e-07
1.0117630992539196e-06
2.669971950963138e-07
-4.0430789749042683e-07
5.319129886713304e-07
1.5306661174397111e-06
8.504858037692491e-07
7.747664810764198e-07
7.468295492789421e-07
7.520749419712846e-07
7.602337225527992e-07
7.822356210960868e-07
7.693275770583665e-07
8.863967168929159e-07
-5.720866656451539e-07
1.7913444678020957e-05
4.719000930606131e-06
-2.5613126860842374e-06
4.7188788137563495e-06
2.1365460938343127e-05
-9.90927972057868e-07
-9.909567847512965e-07
2.1365297251464975e-05
-4.0403883149242917e-07
2.6697836549212394e-07
1.01190419140142e-06
9.67192026396106e-07
9.595562826009111e-07
9.427807507876758e-07
9.393584585908526e-07
9.290507820002589e-07
1.0622751187996878e-06
1.124344798017745e-06
1.937006250194215e-06
1.7913469963586997e-05
-5.719819571234884e-07
8.86157797630883e-07
7.692267999570487e-07
7.822849202807351e-07
7.605717262912007e-07
7.522406389828026e-07
7.464608064350521e-07
7.746022998835004e-07
8.506614886041473e-07
1.5295717485045845e-06
5.307684064722912e-07
4.921263339818907e-06
3.5097374076300934e-05
4.920593039140311e-06
-4.288424126697491e-07
2.026708280308023e-05
2.026660909927228e-05
-4.271396165475994e-07
1.5417695317012997e-05
8.938555574700667e-06
1.541745819110533e-05
1.267894861671677e-05
1.4449787496458299e-05
1.2678364864344483e-05
1.2204914353511112e-05
1.5747619327525215e-05
1.220432049266811e-05
1.21073679072076e-05
1.5988126890744856e-05
1.2107097756602371e-05
1.2098526497822504e-05
1.601224114197887e-05
1.2098856395676615e-05
1.2096859077880462e-05
1.601040118883861e-05
1.2097324284131221e-05
1.2096544303961617e-05
1.6011989844898667e-05
1.2096490366508643e-05
1.2081737812423077e-05
1.6022899488037456e-05
1.2081807135159566e-05