# vtk DataFile Version 2.0
Generated Volume Mesh
ASCII
DATASET UNSTRUCTURED_GRID
POINTS 205 float
30.0 0.5 0.0
30.0 -0.5 0.0
30.0 -0.2500000000006933 0.0
30.0 -1.375122238300719e-12 0.0
30.0 0.249999999999307 0.0
0.0 -0.5 0.0
0.0 0.5 0.0
0.0 0.2500000000006933 0.0
0.0 1.375122238300719e-12 0.0
0.0 -0.249999999999307 0.0
0.7499999999998334 -0.5 0.0
1.499999999999337 -0.5 0.0
2.249999999999122 -0.5 0.0
2.999999999999551 -0.5 0.0
3.749999999999892 -0.5 0.0
4.499999999999296 -0.5 0.0
5.249999999998612 -0.5 0.0
5.999999999997929 -0.5 0.0
6.749999999997245 -0.5 0.0
7.499999999996563 -0.5 0.0
8.249999999995396 -0.5 0.0
8.999999999992493 -0.5 0.0
9.749999999989589 -0.5 0.0
10.49999999998669 -0.5 0.0
11.24999999998379 -0.5 0.0
11.99999999998088 -0.5 0.0
12.74999999997798 -0.5 0.0
13.49999999997508 -0.5 0.0
14.24999999997217 -0.5 0.0
14.99999999996962 -0.5 0.0
15.74999999997081 -0.5 0.0
16.49999999997235 -0.5 0.0
17.24999999997388 -0.5 0.0
17.99999999997542 -0.5 0.0
18.74999999997695 -0.5 0.0
19.49999999997849 -0.5 0.0
20.24999999998003 -0.5 0.0
20.99999999998156 -0.5 0.0
21.7499999999831 -0.5 0.0
22.49999999998463 -0.5 0.0
23.24999999998617 -0.5 0.0
23.99999999998771 -0.5 0.0
24.74999999998924 -0.5 0.0
25.49999999999078 -0.5 0.0
26.24999999999232 -0.5 0.0
26.99999999999385 -0.5 0.0
27.74999999999539 -0.5 0.0
28.49999999999692 -0.5 0.0
29.24999999999846 -0.5 0.0
29.24999999999811 0.5 0.0
28.49999999999622 0.5 0.0
27.74999999999432 0.5 0.0
26.99999999999243 0.5 0.0
26.24999999999054 0.5 0.0
25.49999999998865 0.5 0.0
24.74999999998676 0.5 0.0
23.99999999998487 0.5 0.0
23.24999999998297 0.5 0.0
22.49999999998108 0.5 0.0
21.74999999998113 0.5 0.0
20.99999999998812 0.5 0.0
20.2499999999951 0.5 0.0
19.5000000000021 0.5 0.0
18.75000000000908 0.5 0.0
18.00000000001607 0.5 0.0
17.25000000002306 0.5 0.0
16.50000000003005 0.5 0.0
15.75000000003524 0.5 0.0
15.00000000003744 0.5 0.0
14.2500000000359 0.5 0.0
13.50000000003401 0.5 0.0
12.75000000003212 0.5 0.0
12.00000000003023 0.5 0.0
11.25000000002834 0.5 0.0
10.50000000002645 0.5 0.0
9.75000000002456 0.5 0.0
9.000000000022673 0.5 0.0
8.25000000002078 0.5 0.0
7.500000000018893 0.5 0.0
6.750000000017007 0.5 0.0
6.000000000015113 0.5 0.0
5.250000000013223 0.5 0.0
4.500000000011333 0.5 0.0
3.750000000009447 0.5 0.0
3.000000000007557 0.5 0.0
2.250000000005667 0.5 0.0
1.50000000000378 0.5 0.0
0.7500000000018865 0.5 0.0
0.7500000000013733 0.2500000000006587 0.0
1.500000000002669 0.250000000000624 0.0
2.25000000000403 0.2500000000005893 0.0
3.000000000005555 0.2500000000005547 0.0
3.750000000007058 0.2500000000005201 0.0
4.500000000008323 0.2500000000004854 0.0
5.250000000009571 0.2500000000004508 0.0
6.000000000010818 0.2500000000004161 0.0
6.750000000012066 0.2500000000003814 0.0
7.500000000013309 0.2500000000003469 0.0
8.250000000014435 0.2500000000003121 0.0
9.00000000001513 0.2500000000002774 0.0
9.750000000015818 0.2500000000002428 0.0
10.50000000001651 0.2500000000002081 0.0
11.2500000000172 0.2500000000001734 0.0
12.0000000000179 0.2500000000001388 0.0
12.75000000001858 0.2500000000001041 0.0
13.50000000001928 0.2500000000000695 0.0
14.25000000001997 0.2500000000000349 0.0
15.00000000002048 0.2500000000000002 0.0
15.75000000001913 0.2499999999999655 0.0
16.50000000001562 0.2499999999999308 0.0
17.25000000001076 0.2499999999998962 0.0
18.0000000000059 0.2499999999998616 0.0
18.75000000000106 0.2499999999998269 0.0
19.49999999999619 0.2499999999997922 0.0
20.24999999999134 0.2499999999997576 0.0
20.99999999998648 0.2499999999997229 0.0
21.74999999998162 0.2499999999996883 0.0
22.49999999998197 0.2499999999996537 0.0
23.24999999998378 0.249999999999619 0.0
23.99999999998557 0.2499999999995844 0.0
24.74999999998738 0.2499999999995496 0.0
25.49999999998918 0.2499999999995149 0.0
26.24999999999098 0.2499999999994803 0.0
26.99999999999278 0.2499999999994457 0.0
27.74999999999459 0.2499999999994111 0.0
28.49999999999639 0.2499999999993763 0.0
29.24999999999819 0.2499999999993416 0.0
0.7500000000008599 1.306366126385604e-12 0.0
1.500000000001559 1.237610014470504e-12 0.0
2.250000000002395 1.168853902555392e-12 0.0
3.000000000003553 1.100097790640249e-12 0.0
3.750000000004669 1.031341678725111e-12 0.0
4.500000000005314 9.625855668100158e-13 0.0
5.250000000005916 8.938294548949248e-13 0.0
6.00000000000652 8.250733429798334e-13 0.0
6.750000000007127 7.563172310647421e-13 0.0
7.500000000007729 6.87561119149651e-13 0.0
8.25000000000809 6.188050072345818e-13 0.0
9.000000000007583 5.500488953195924e-13 0.0
9.750000000007072 4.812927834046031e-13 0.0
10.50000000000657 4.125366714896134e-13 0.0
11.25000000000606 3.43780559574624e-13 0.0
12.00000000000555 2.750244476596346e-13 0.0
12.75000000000505 2.062683357446447e-13 0.0
13.50000000000454 1.375122238296555e-13 0.0
14.25000000000404 6.87561119146659e-14 0.0
15.00000000000353 -3.237232719537362e-25 0.0
15.75000000000302 -6.875611191531294e-14 0.0
16.5000000000012 -1.375122238301816e-13 0.0
17.24999999999848 -2.062683357449676e-13 0.0
17.99999999999574 -2.750244476597535e-13 0.0
18.74999999999301 -3.437805595745397e-13 0.0
19.4999999999903 -4.125366714893256e-13 0.0
20.24999999998756 -4.81292783404112e-13 0.0
20.99999999998484 -5.500488953188982e-13 0.0
21.74999999998211 -6.188050072336838e-13 0.0
22.49999999998285 -6.875611191487879e-13 0.0
23.24999999998457 -7.563172310639813e-13 0.0
23.99999999998628 -8.250733429791742e-13 0.0
24.749999999988 -8.938294548943672e-13 0.0
25.49999999998971 -9.625855668095602e-13 0.0
26.24999999999143 -1.031341678724754e-12 0.0
26.99999999999314 -1.100097790639947e-12 0.0
27.74999999999485 -1.16885390255514e-12 0.0
28.49999999999656 -1.237610014470333e-12 0.0
29.24999999999828 -1.306366126385526e-12 0.0
0.7500000000003466 -0.2499999999993416 0.0
1.500000000000448 -0.2499999999993763 0.0
2.250000000000759 -0.249999999999411 0.0
3.000000000001551 -0.2499999999994457 0.0
3.75000000000228 -0.2499999999994803 0.0
4.500000000002305 -0.2499999999995149 0.0
5.250000000002263 -0.2499999999995496 0.0
6.000000000002225 -0.2499999999995843 0.0
6.750000000002185 -0.249999999999619 0.0
7.500000000002144 -0.2499999999996536 0.0
8.25000000000174 -0.2499999999996882 0.0
9.000000000000037 -0.2499999999997228 0.0
9.749999999998334 -0.2499999999997575 0.0
10.49999999999663 -0.2499999999997922 0.0
11.24999999999492 -0.2499999999998269 0.0
11.99999999999322 -0.2499999999998616 0.0
12.74999999999151 -0.2499999999998962 0.0
13.49999999998981 -0.2499999999999308 0.0
14.24999999998811 -0.2499999999999655 0.0
14.99999999998657 -0.2500000000000002 0.0
15.74999999998691 -0.2500000000000349 0.0
16.49999999998677 -0.2500000000000695 0.0
17.24999999998618 -0.2500000000001041 0.0
17.99999999998558 -0.2500000000001388 0.0
18.74999999998499 -0.2500000000001734 0.0
19.49999999998438 -0.2500000000002082 0.0
20.2499999999838 -0.2500000000002427 0.0
20.9999999999832 -0.2500000000002774 0.0
21.7499999999826 -0.2500000000003121 0.0
22.49999999998375 -0.2500000000003467 0.0
23.24999999998537 -0.2500000000003815 0.0
23.99999999998699 -0.2500000000004162 0.0
24.74999999998862 -0.2500000000004507 0.0
25.49999999999025 -0.2500000000004854 0.0
26.24999999999187 -0.25000000000052 0.0
26.99999999999349 -0.2500000000005547 0.0
27.74999999999513 -0.2500000000005894 0.0
28.49999999999675 -0.2500000000006239 0.0
29.24999999999837 -0.2500000000006587 0.0
CELLS 160 800
4 6 7 88 87
4 87 88 89 86
4 86 89 90 85
4 85 90 91 84
4 84 91 92 83
4 83 92 93 82
4 82 93 94 81
4 81 94 95 80
4 80 95 96 79
4 79 96 97 78
4 78 97 98 77
4 77 98 99 76
4 76 99 100 75
4 75 100 101 74
4 74 101 102 73
4 73 102 103 72
4 72 103 104 71
4 71 104 105 70
4 70 105 106 69
4 69 106 107 68
4 68 107 108 67
4 67 108 109 66
4 66 109 110 65
4 65 110 111 64
4 64 111 112 63
4 63 112 113 62
4 62 113 114 61
4 61 114 115 60
4 60 115 116 59
4 59 116 117 58
4 58 117 118 57
4 57 118 119 56
4 56 119 120 55
4 55 120 121 54
4 54 121 122 53
4 53 122 123 52
4 52 123 124 51
4 51 124 125 50
4 50 125 126 49
4 49 126 4 0
4 7 8 127 88
4 88 127 128 89
4 89 128 129 90
4 90 129 130 91
4 91 130 131 92
4 92 131 132 93
4 93 132 133 94
4 94 133 134 95
4 95 134 135 96
4 96 135 136 97
4 97 136 137 98
4 98 137 138 99
4 99 138 139 100
4 100 139 140 101
4 101 140 141 102
4 102 141 142 103
4 103 142 143 104
4 104 143 144 105
4 105 144 145 106
4 106 145 146 107
4 107 146 147 108
4 108 147 148 109
4 109 148 149 110
4 110 149 150 111
4 111 150 151 112
4 112 151 152 113
4 113 152 153 114
4 114 153 154 115
4 115 154 155 116
4 116 155 156 117
4 117 156 157 118
4 118 157 158 119
4 119 158 159 120
4 120 159 160 121
4 121 160 161 122
4 122 161 162 123
4 123 162 163 124
4 124 163 164 125
4 125 164 165 126
4 126 165 3 4
4 8 9 166 127
4 127 166 167 128
4 128 167 168 129
4 129 168 169 130
4 130 169 170 131
4 131 170 171 132
4 132 171 172 133
4 133 172 173 134
4 134 173 174 135
4 135 174 175 136
4 136 175 176 137
4 137 176 177 138
4 138 177 178 139
4 139 178 179 140
4 140 179 180 141
4 141 180 181 142
4 142 181 182 143
4 143 182 183 144
4 144 183 184 145
4 145 184 185 146
4 146 185 186 147
4 147 186 187 148
4 148 187 188 149
4 149 188 189 150
4 150 189 190 151
4 151 190 191 152
4 152 191 192 153
4 153 192 193 154
4 154 193 194 155
4 155 194 195 156
4 156 195 196 157
4 157 196 197 158
4 158 197 198 159
4 159 198 199 160
4 160 199 200 161
4 161 200 201 162
4 162 201 202 163
4 163 202 203 164
4 164 203 204 165
4 165 204 2 3
4 9 5 10 166
4 166 10 11 167
4 167 11 12 168
4 168 12 13 169
4 169 13 14 170
4 170 14 15 171
4 171 15 16 172
4 172 16 17 173
4 173 17 18 174
4 174 18 19 175
4 175 19 20 176
4 176 20 21 177
4 177 21 22 178
4 178 22 23 179
4 179 23 24 180
4 180 24 25 181
4 181 25 26 182
4 182 26 27 183
4 183 27 28 184
4 184 28 29 185
4 185 29 30 186
4 186 30 31 187
4 187 31 32 188
4 188 32 33 189
4 189 33 34 190
4 190 34 35 191
4 191 35 36 192
4 192 36 37 193
4 193 37 38 194
4 194 38 39 195
4 195 39 40 196
4 196 40 41 197
4 197 41 42 198
4 198 42 43 199
4 199 43 44 200
4 200 44 45 201
4 201 45 46 202
4 202 46 47 203
4 203 47 48 204
4 204 48 1 2
CELL_TYPES 160
9
9
9
9
9
9
9
9
9
9
9
9
9
9
9
9
9
9
9
9
9
9
9
9
9
9
9
9
9
9
9
9
9
9
9
9
9
9
9
9
9
9
9
9
9
9
9
9
9
9
9
9
9
9
9
9
9
9
9
9
9
9
9
9
9
9
9
9
9
9
9
9
9
9
9
9
9
9
9
9
9
9
9
9
9
9
9
9
9
9
9
9
9
9
9
9
9
9
9
9
9
9
9
9
9
9
9
9
9
9
9
9
9
9
9
9
9
9
9
9
9
9
9
9
9
9
9
9
9
9
9
9
9
9
9
9
9
9
9
9
9
9
9
9
9
9
9
9
9
9
9
9
9
9
9
9
9
9
9
9
POINT_DATA 205
SCALARS disp_x float
LOOKUP_TABLE default
3.2667644233891164
-3.13504194881041
-1.534367881199399
0.06586233223068083
1.6660918641164795
0.0
0.0
0.0
0.0
0.0
0.0
-0.2523569296199649
-0.3690559101339579
-0.46039290869107435
-0.4897503845047154
-0.4727061230023419
-0.4089637815699329
-0.30640093895696724
-0.17085728176117676
-0.010865073722152507
0.1649776143460458
0.34712608992149496
0.5259575386630734
0.6918526527903224
0.8356754999930507
0.9490568310775638
1.024747872452545
1.0568905567642974
1.0412604277584354
0.9754372227915247
0.8589117390038417
0.6931151604568118
0.48137240403839254
0.22877799191630221
-0.05800105577408099
-0.37098945076280554
-0.7012258684630928
-1.0391322470553692
-1.3749173837186435
-1.6990009535541284
-2.00244367274646
-2.2773690667646975
-2.51736391462362
-2.717844450014944
-2.8763781331378118
-2.9929608061363417
-3.070206124007852
-3.113596631053344
-3.131298007072364
3.26299946755862
3.245239468397967
3.201751810412436
3.1243701896166107
3.007612417361587
2.8488647862642162
2.6481315321685543
2.4078452414192824
2.132589758137346
1.8287783762696885
1.5042876607398348
1.16805699018839
0.8296667964930956
0.49890839555880134
0.1853599758499973
-0.10201701081172032
-0.3552471230702685
-0.5676632129770826
-0.7341705518013751
-0.8514441497305455
-0.9180524498966481
-0.9345048678562374
-0.9032206563395772
-0.828425732305608
-0.7159745521449963
-0.5731226007574092
-0.4082247751521262
-0.23044553151511382
-0.049345190201138145
0.12533290999643004
0.2842943215368284
0.4184266199605999
0.5202222914425836
0.5819446974334541
0.5989174632495484
0.5659981452157543
0.48067246708515843
0.333954766205553
0.16200921309362426
0.09330489475763998
0.1921719726859138
0.2624251574577392
0.30668308839151714
0.3227593430056842
0.31568878951390084
0.28497262584754535
0.23516825084826842
0.16876671678224628
0.09025551133210452
0.0037886783353994202
-0.0858185410197724
-0.1738102679336669
-0.25538532018698096
-0.32600670763533784
-0.38150826078137334
-0.41828674139419797
-0.43342836931192663
-0.4248332404882832
-0.39129827975111664
-0.3325711633621775
-0.24936439269838787
-0.1433322064182559
-0.017008653893823444
0.12629048113583152
0.28259921927642584
0.44746174239061576
0.6161161920572498
0.7836955181297655
0.9454385478275673
1.0969040225975448
1.234180761806979
1.3540866750500102
1.4543517680726012
1.5337785021999566
1.5923754771898986
1.631477042324795
1.6537711364838126
1.6635349893992797
0.03246415761811158
0.052404024747974606
0.05593532100052991
0.05157847989610704
0.05512970399391534
0.0544809254360539
0.05565222085896161
0.056012554196737674
0.05672153294652357
0.05723407752423609
0.057818897292203526
0.05834143264862762
0.05886832842258146
0.059366618852659966
0.05985224715513667
0.06031725247626345
0.06076536060985394
0.06119458731711398
0.06160575063595704
0.06199830241193584
0.06237237022876568
0.06272775727167203
0.06306443217125551
0.06338228915071406
0.06368126552309655
0.06396128414390442
0.06422228169124404
0.06446419468851991
0.06468696668074204
0.0648905441125181
0.06507487962395911
0.06523992792881114
0.06538565306363821
0.06551201340630013
0.06561899531116538
0.06570653928173001
0.0657746740193101
0.06582339154705927
0.06585237793808851
-0.01927739735063607
-0.07673071354763422
-0.16134036050598333
-0.19726196797421197
-0.21550437468266817
-0.20535980053206612
-0.1743051016005426
-0.12283676312168956
-0.055476136489743366
0.024286950497975135
0.1118112398900637
0.20251872818747826
0.2915371911433134
0.37412204917732284
0.4457082160116267
0.5021429422565231
0.5398160828130899
0.5558169190894287
0.5480437401355849
0.5152940607548118
0.4573149865329102
0.3748190296430066
0.2694601679554597
0.14377233628785635
0.0010711454759806949
-0.15467755603665873
-0.3190180883091708
-0.48718871395956065
-0.6543224991677086
-0.8156583755317093
-0.9667551826908891
-1.1037018245420605
-1.2233162946144562
-1.323328656518786
-1.402541453507592
-1.460963293134705
-1.4999286545354968
-1.5221253047399204
-1.53183100645867
SCALARS disp_y float
LOOKUP_TABLE default
-40.67945041859865
-40.679447393915424
-40.67921014744719
-40.67905394054152
-40.67921157727489
0.0
0.0
0.0
0.0
0.0
-0.09983132032850447
-0.42465270169236374
-0.9981308467337632
-1.7281165697308665
-2.550274253011342
-3.3796395728233373
-4.146933817670736
-4.7868557342635505
-5.245066189938962
-5.477862891583275
-5.454642970631559
-5.158516748672162
-4.587179095629087
-3.752933839988697
-2.6823485637742
-1.4152995763647924
-0.003544572905489929
1.4911869224320586
2.9994911310604007
4.446904570255888
5.756729645383293
6.852964989417139
7.663223157782901
8.121519233246662
8.170815759874895
7.765217530731121
6.871721061564362
5.471438916308879
3.560237076965894
1.1487438823096587
-1.7382895294846303
-5.0632753104066435
-8.777698614973893
-12.82460873488924
-17.141629385694863
-21.6644273809949
-26.330513989958003
-31.083429737054168
-35.8768372309178
-35.8768476915659
-31.08345206799649
-26.330547369744234
-21.664471857752424
-17.141684971634643
-12.824675406648728
-8.777776359416286
-5.063364107988522
-1.7383893599805678
1.1486330431427323
3.560115255096453
5.471306140709796
6.871577363819518
7.765062944613248
8.170650322769845
8.121342982906233
7.663036139080198
6.85276724044725
5.756521225849415
4.446685503445559
2.999261522309347
1.4909467171472555
-0.0037950950355130075
-1.4155608103819395
-2.682619521488993
-3.7532163425813527
-4.587469234527167
-5.158822317958386
-5.4549476920791555
-5.478200120090296
-5.245368326589952
-4.787251223394662
-4.147201914120814
-3.3801227488609644
-2.5503652157273997
-1.7296115463789492
-0.9947277089901441
-0.43105802044893565
-0.12273497112205173
-0.09852811018820219
-0.41341956228753235
-0.9821749224729859
-1.7234180489112783
-2.549509704611779
-3.3843358597222135
-4.156046223460873
-4.799925780494751
-5.261155106064876
-5.496146679877789
-5.474096017350597
-5.178133134328795
-4.6059123601927245
-3.7697810257862496
-2.696365413110815
-1.4256473954504498
-0.009517637368570142
1.4901306998663868
3.003709449510768
4.456555060805949
5.771762894932468
6.873125279377063
7.688057722732794
8.150395481190749
8.202946091382175
7.799690855635017
6.907539981199095
5.507561271243473
3.5956204424875304
1.1823914786720824
-1.7072830319081325
-5.035679623197961
-8.754106638244393
-12.805399451048013
-17.126936551630752
-21.65411117581011
-26.324148593987058
-31.08026648452571
-35.87585725352797
-0.08774671608162193
-0.4039970664406881
-0.97938378731337
-1.7211318680740695
-2.548996041596606
-3.38575527999181
-4.158856967563789
-4.804063324781431
-5.266310595861494
-5.502022889489905
-5.480371669075643
-5.184464056602811
-4.611957356285382
-3.7752050565554747
-2.7008570648970007
-1.4289282174669475
-0.011354258218726265
1.4899179243533096
3.005238836252934
4.459878772717875
5.7768644634597415
6.879919941805163
7.69639545521546
8.160066730613941
8.213689994578587
7.811205691989019
6.919495496159352
5.519612448757072
3.60742225664558
1.193614112751133
-1.6969390036603684
-5.026468538883444
-8.746224290927088
-12.798970025097185
-17.122004565735335
-21.650625373933053
-26.32197505704569
-31.079136524431107
-35.87546189181811
-0.08795425539230092
-0.4047550678942582
-0.9865073853942593
-1.7219945320431567
-2.549509714517638
-3.384146607517204
-4.1558772660572
-4.799743614807308
-5.260997469310116
-5.495981071785924
-5.473942148921127
-5.177981120625671
-4.605766896129896
-3.7696399670217193
-2.696229836502712
-1.4255168229306783
-0.009392351468191507
1.4902507933300972
3.0038242612325394
4.456664593330869
5.771867107720389
6.8732241548417115
7.68815123393245
8.150483607652603
8.20302881136643
7.799768149925801
6.907611831265908
5.507627660127113
3.5956813544175876
1.182446899178915
-1.7072331158790934
-5.03563522359351
-8.754067765512215
-12.805366114784341
-17.126908756102033
-21.654088945975506
-26.324131880371187
-31.080255353281018
-35.87585201812293
SCALARS mode1_x float
LOOKUP_TABLE default
0.32122498450565967
-0.3129139389810358
-0.15437857960121826
0.00415552293918193
0.16268962536994513
0.0
0.0
0.0
0.0
0.0
0.0
-0.02474994670831187
-0.04209722359702234
-0.06118821157073295
-0.078783521112104
-0.09593404285491737
-0.11224735794263115
-0.1279056619086003
-0.14282204732936687
-0.15704295505414978
-0.17055153875381074
-0.18336210374770393
-0.1954754792870493
-0.20690038222207088
-0.2176431620735863
-0.22771293363560702
-0.2371191172623157
-0.24587273851564712
-0.2539858586867342
-0.2614719246111099
-0.2683456603015567
-0.2746231790794967
-0.28032198272265246
-0.2854610114117466
-0.29006066430906596
-0.2941428301850535
-0.2977309089492812
-0.3008498336075199
-0.3035260881987497
-0.30578772396142373
-0.30766437312131456
-0.3091872601309695
-0.3103892119746384
-0.3113046653481854
-0.31196967039350226
-0.31242191330721286
-0.3127006423117857
-0.3128469433340269
-0.31290288880109274
0.3212139309130176
0.32115797592463885
0.32101165912135154
0.32073290797069404
0.3202806365982504
0.3196155967661961
0.318700102283046
0.31749810300312287
0.3159751622353025
0.31409845298799255
0.3118367508219785
0.3091604234856001
0.3060414197930155
0.30245325559793457
0.2983709981142265
0.2937712469835456
0.288632114352209
0.28293319918621734
0.2766555651277598
0.2697817025927695
0.2622955142001461
0.2541822433840138
0.24542850979976494
0.2360221163430245
0.22595231476005523
0.21520911903617718
0.2037845667425108
0.19166996143155204
0.17886137941834657
0.1653481359457038
0.1511363241744234
0.1362007964621022
0.12057871137470337
0.10420215337759371
0.08715013723169958
0.06937123738943507
0.050880535460084496
0.031195715200163277
0.013125606794902153
0.007928481818580739
0.017807899801207366
0.02743269729892932
0.03674606783472201
0.04556781783684533
0.05415716883385902
0.06230099535461023
0.07013853828216206
0.07759260384103775
0.08470581575131537
0.0914593612359783
0.09786573459489778
0.10392270651474882
0.10963592097820017
0.11500794574363825
0.12004363192454177
0.12474755517461186
0.12912529762202368
0.13318286108213076
0.1369269872343284
0.1403650331524154
0.14350506155410644
0.14635582370320596
0.14892679254490487
0.15122816900712277
0.1532708992797978
0.15506668462492237
0.15662799284350898
0.15796806699146096
0.15910093367403189
0.16004140965733096
0.16080510808909856
0.1614084425038524
0.16186863209470018
0.16220370378005763
0.16243248916700345
0.162574663445399
0.16265058890567657
0.16268186858376799
0.002600142410034751
0.004169817739966521
0.004401958706133209
0.003991472833464538
0.004227747181500106
0.004122635609682685
0.00416741805971253
0.004147411111079952
0.004157250123910967
0.004152468290488087
0.004155003246275617
0.004153885778803307
0.004154564429028828
0.004154359312303798
0.004154581075244362
0.004154589503684231
0.004154697629124872
0.0041547522122815025
0.004154828314483007
0.004154889165810271
0.004154952775427319
0.00415501032409248
0.0041550661304521706
0.0041551180795249415
0.004155167206969574
0.004155213005563254
0.004155255723560682
0.004155295239386123
0.004155331612635551
0.004155364813985187
0.0041553948577422025
0.0041554217367197
0.004155445454849877
0.004155466009356498
0.004155483403625277
0.004155497631564954
0.004155508701702171
0.004155516615058721
0.0041555213226943145
-0.001985305868161129
-0.008600275642540197
-0.019508986723615892
-0.02825185812744578
-0.037357430156681665
-0.04580027242470245
-0.054018065899870175
-0.06181864898661897
-0.06929047932078618
-0.0763947482009469
-0.08315237731153048
-0.08955648100936252
-0.0956143028279708
-0.1013268479400242
-0.10669895725581387
-0.11173436810455845
-0.11643820168096397
-0.12081577296600472
-0.12487321458532916
-0.12861720416513808
-0.13205513014553763
-0.13519503988416465
-0.1380456921667371
-0.14061655625501218
-0.14291783488116083
-0.14496047335161896
-0.1467561733610533
-0.148317402498765
-0.14965740392439153
-0.15079020419233385
-0.15173062009400753
-0.1524942647645214
-0.15309755174524725
-0.15355770022439313
-0.15389273712572732
-0.15412149404856745
-0.15426364619745253
-0.15433955582929565
-0.15437082606309818
SCALARS mode1_y float
LOOKUP_TABLE default
-13.614361318289454
-13.614361317798219
-13.614360643597173
-13.614360181648678
-13.614360643829396
0.0
0.0
0.0
0.0
0.0
-0.005832935829081473
-0.03327353499808546
-0.08990361761797193
-0.17387927828699354
-0.2855397958325276
-0.4231789969790552
-0.5859431915177911
-0.7726752736779742
-0.9823413626908827
-1.2138566240484536
-1.4661679111142232
-1.7382154583744924
-2.0289530749250275
-2.337340623047301
-2.6623497393814035
-3.0029633834120686
-3.3581785067110355
-3.727007308451846
-4.108479307190605
-4.50164311418172
-4.905568454284604
-5.31934815662994
-5.742100245033268
-6.172970057135143
-6.611132420337806
-7.055793864149337
-7.506194872540485
-7.961612168383543
-8.421361027984295
-8.884797620979477
-9.35132137272919
-9.820377345320992
-10.291458634532173
-10.764108780903005
-11.237924184053982
-11.712556553989593
-12.187715269370969
-12.66317004036048
-13.138752751248768
-13.13875275294736
-12.663170043986796
-12.187715274792877
-11.71255656121569
-11.237924193088368
-10.76410879174404
-10.291458647180033
-9.82037735977579
-9.351321388990318
-8.884797639048534
-8.421361047859204
-7.961612190075288
-7.5061948960346045
-7.0557938894752175
-6.611132447435062
-6.172970086126355
-5.7421002756676005
-5.319348189418753
-4.905568488181972
-4.501643151318718
-4.10847934320677
-3.7270073522452165
-3.3581785401089177
-3.0029634434995933
-2.662349750579478
-2.3373407392127783
-2.028952982582264
-1.7382157991569818
-1.4661673625886762
-1.213857914011571
-0.9823389812213293
-0.7726797087239662
-0.585936435430673
-0.42318900585081626
-0.2855170129889774
-0.1739703203897442
-0.08959400969297678
-0.033764539168784295
-0.007665631467576998
-0.005520081922481473
-0.031693373026060706
-0.08753836986137606
-0.1720395735110439
-0.2836490894483707
-0.4213954765946462
-0.5842252518024639
-0.7710407009229179
-0.9807786739656974
-1.2123721080441947
-1.4647576027242375
-1.7368805495327442
-2.02769209766174
-2.336153232087677
-2.6612348814201288
-3.0019201773504753
-3.357205802752655
-3.726103897462085
-4.107643809774996
-4.500874028182325
-4.904864124884271
-5.318706784961998
-5.74151987841175
-6.172448588776188
-6.610667584903234
-7.055383235793212
-7.505835862168459
-7.961302021721787
-8.421096823646689
-8.884576268935882
-9.351139612896569
-9.820231746486053
-10.291345593401122
-10.764024521084352
-11.237864757070648
-11.712517832541382
-12.187692968073925
-12.66315965353083
-13.138749715341309
-0.004570808510959872
-0.030733885460584545
-0.08696490293204334
-0.1713878944501016
-0.2830130622303032
-0.42080669931042036
-0.5836511706902835
-0.7704954383385085
-0.9802582910593214
-1.2118768455159967
-1.4642876461039454
-1.736435419156022
-2.0272717579472213
-2.3357573408449945
-2.6608631995200684
-3.0015723553397318
-3.3568814843254793
-3.725802665991171
-4.107365211695723
-4.500617559395118
-4.904629235106999
-5.318492873633066
-5.741326294825026
-6.172274630332967
-6.610512496434917
-7.05524620851453
-7.505716032955739
-7.961198472376393
-8.421008580291403
-8.88450230148283
-9.351078834612666
-9.820183013475834
-10.291307704936248
-10.763996216987312
-11.23784472517298
-11.71250468618754
-12.187685305402685
-12.663155915841351
-13.138748475826691
-0.0046748844697336
-0.03100223720419589
-0.08790782950914688
-0.17193890615335186
-0.28366418539317506
-0.4213947455684661
-0.5842257808249572
-0.7710397550159587
-0.9807793289042461
-1.2123717085910437
-1.4647577541640628
-1.736880442253362
-2.0276921118280082
-2.336153189904049
-2.6612348680264253
-3.0019201511116878
-3.3572057841949747
-3.7261038764751238
-4.107643791321171
-4.500874009832254
-4.904864107828558
-5.318706768619916
-5.741519863068906
-6.1724485742931625
-6.610667571348436
-7.05538322313327
-7.5058358504199685
-7.961302010876619
-8.421096813708832
-8.884576259901552
-9.351139604765985
-9.820231739258624
-10.291345587077206
-10.764024515663866
-11.237864752553104
-11.712517828929794
-12.187692965359156
-12.663159651723232
-13.13874971449117
SCALARS mode2_x float
LOOKUP_TABLE default
1.0698854836532055
-1.1234139255405466
-0.5750641512619536
-0.02676426549498385
0.5215356480039477
0.0
0.0
0.0
0.0
0.0
0.0
0.14396185939229444
0.2307683891821994
0.31740343661301745
0.3838363074119085
0.4367545182588804
0.47396245382408353
0.49693446451452455
0.5055570013250277
0.5006551327895631
0.48275746521939666
0.45268954786363547
0.41128846338983294
0.3595311130700524
0.2984608546731924
0.22920911032789348
0.15296728033855078
0.07098072601321176
-0.015470396416682568
-0.1050856420964214
-0.19656254033301124
-0.288614081743878
-0.379987268266979
-0.469481437938221
-0.5559666184775985
-0.6384014216199356
-0.7158503730838012
-0.7875004095653189
-0.8526763860921965
-0.9108554112019641
-0.9616798954917544
-1.0049691718587914
-1.040729684875404
-1.0691636134928666
-1.0906759189271127
-1.1058806958712841
-1.1156024690390034
-1.1208897690435515
-1.122983918032482
1.0694563311769665
1.0673645676544545
1.0620812214255044
1.0523649965588011
1.0371673491203268
1.0156637580086405
0.9872401271585551
0.9514914956026991
0.9082156836659256
0.8574062466296467
0.7992438509570747
0.7340860857790507
0.662455841658671
0.5850282636731357
0.502616413103789
0.41615576638105106
0.3266877052724739
0.23534221306811812
0.14331992685206918
0.05187389294917484
-0.03770898049523998
-0.12412601886234469
-0.20607719678620837
-0.28228150430034216
-0.35149532652953797
-0.41252370413969114
-0.46424246898397914
-0.5055934933834078
-0.5356300446816122
-0.5534530127742906
-0.5583652340229688
-0.5495738016080699
-0.5267798061937992
-0.4891223757890134
-0.4367711615418317
-0.36912831610948066
-0.28621534118444963
-0.18463945909697516
-0.08265856093534239
-0.048839436657381045
-0.1056563045586889
-0.1548993446321478
-0.19687125746284817
-0.23027082546193353
-0.2568802863624286
-0.2754636337520377
-0.28706906696737516
-0.29142672611404163
-0.2890710705823291
-0.28020122840055217
-0.2652631414476871
-0.2446583551559786
-0.21888279083828463
-0.1884535924080276
-0.15393746509196624
-0.1159283039441728
-0.07504817332088462
-0.03193584136600718
0.012759541943238346
0.05838800096545629
0.10430724522742646
0.1498920320062664
0.1945432604312251
0.2376971571791521
0.2788341960533851
0.31748775482457664
0.35325234846473486
0.38579137210740966
0.41484426219710335
0.44023300492342565
0.4618679630622787
0.4797529238886316
0.4939894758023423
0.5047805387481584
0.5124330017761756
0.5173612829799676
0.5200828148134514
0.5212402366226014
-0.01638995195049908
-0.02629865043483105
-0.027788360231280198
-0.0252328892400677
-0.0267471899898038
-0.02611212719255893
-0.026419708596933468
-0.026318757984457954
-0.026404891895012685
-0.026398243725390656
-0.026436884206670324
-0.026451774418409145
-0.02647720584120259
-0.0264963111065696
-0.026517338580703483
-0.0265362582677968
-0.02655503976426499
-0.026572718057074892
-0.026589765043901606
-0.026605948798359345
-0.026621382188139375
-0.02663600924942235
-0.02664985672964793
-0.026662910909149573
-0.02667517791922584
-0.02668665420442574
-0.02669734098978513
-0.026707237189809333
-0.026716342893946695
-0.02672465763378427
-0.02673218128329663
-0.026738913515075995
-0.02674485427887141
-0.026750003101491143
-0.026754360499022176
-0.026757924951635384
-0.026760698367118835
-0.026762680995447735
-0.026763860475805645
0.011384119815246419
0.04759621592528794
0.10486244146511779
0.1431877381403294
0.17831913214708478
0.20395352090730368
0.22295094342839736
0.23427381975769362
0.23869486910489995
0.23623603220828154
0.22734651980423967
0.21235030133192
0.19170854395287723
0.16588797441232978
0.13542004468554797
0.10086445122164825
0.06281852376436373
0.02190264638774844