# vtk DataFile Version 2.0
Generated Volume Mesh
ASCII
DATASET UNSTRUCTURED_GRID
POINTS 569 float
0.0 -0.009999999776482582 0.0
0.20000000298023224 -0.009999999776482582 0.0
0.20000000298023224 0.009999999776482582 0.0
0.0 0.009999999776482582 0.0
0.004999999888241291 -0.009999999776482582 0.0
0.009999999776482582 -0.009999999776482582 0.0
0.014999999664723873 -0.009999999776482582 0.0
0.019999999552965164 -0.009999999776482582 0.0
0.02500000037252903 -0.009999999776482582 0.0
0.029999999329447746 -0.009999999776482582 0.0
0.03500000014901161 -0.009999999776482582 0.0
0.03999999910593033 -0.009999999776482582 0.0
0.04500000178813934 -0.009999999776482582 0.0
0.05000000074505806 -0.009999999776482582 0.0
0.054999999701976776 -0.009999999776482582 0.0
0.05999999865889549 -0.009999999776482582 0.0
0.06499999761581421 -0.009999999776482582 0.0
0.07000000029802322 -0.009999999776482582 0.0
0.07500000298023224 -0.009999999776482582 0.0
0.07999999821186066 -0.009999999776482582 0.0
0.08500000089406967 -0.009999999776482582 0.0
0.09000000357627869 -0.009999999776482582 0.0
0.0949999988079071 -0.009999999776482582 0.0
0.10000000149011612 -0.009999999776482582 0.0
0.10499999672174454 -0.009999999776482582 0.0
0.10999999940395355 -0.009999999776482582 0.0
0.11500000208616257 -0.009999999776482582 0.0
0.11999999731779099 -0.009999999776482582 0.0
0.125 -0.009999999776482582 0.0
0.12999999523162842 -0.009999999776482582 0.0
0.13500000536441803 -0.009999999776482582 0.0
0.14000000059604645 -0.009999999776482582 0.0
0.14499999582767487 -0.009999999776482582 0.0
0.15000000596046448 -0.009999999776482582 0.0
0.1550000011920929 -0.009999999776482582 0.0
0.1599999964237213 -0.009999999776482582 0.0
0.16500000655651093 -0.009999999776482582 0.0
0.17000000178813934 -0.009999999776482582 0.0
0.17499999701976776 -0.009999999776482582 0.0
0.18000000715255737 -0.009999999776482582 0.0
0.1850000023841858 -0.009999999776482582 0.0
0.1899999976158142 -0.009999999776482582 0.0
0.19499999284744263 -0.009999999776482582 0.0
0.0024999999441206455 -0.009999999776482582 0.0
0.007499999832361937 -0.009999999776482582 0.0
0.012500000186264515 -0.009999999776482582 0.0
0.017500000074505806 -0.009999999776482582 0.0
0.02250000089406967 -0.009999999776482582 0.0
0.027499999850988388 -0.009999999776482582 0.0
0.032499998807907104 -0.009999999776482582 0.0
0.03750000149011612 -0.009999999776482582 0.0
0.042500000447034836 -0.009999999776482582 0.0
0.04749999940395355 -0.009999999776482582 0.0
0.05249999836087227 -0.009999999776482582 0.0
0.057500001043081284 -0.009999999776482582 0.0
0.0625 -0.009999999776482582 0.0
0.06750000268220901 -0.009999999776482582 0.0
0.07249999791383743 -0.009999999776482582 0.0
0.07750000059604645 -0.009999999776482582 0.0
0.08250000327825546 -0.009999999776482582 0.0
0.08749999850988388 -0.009999999776482582 0.0
0.0925000011920929 -0.009999999776482582 0.0
0.09749999642372131 -0.009999999776482582 0.0
0.10249999910593033 -0.009999999776482582 0.0
0.10750000178813934 -0.009999999776482582 0.0
0.11249999701976776 -0.009999999776482582 0.0
0.11749999970197678 -0.009999999776482582 0.0
0.12250000238418579 -0.009999999776482582 0.0
0.1274999976158142 -0.009999999776482582 0.0
0.13249999284744263 -0.009999999776482582 0.0
0.13750000298023224 -0.009999999776482582 0.0
0.14249999821186066 -0.009999999776482582 0.0
0.14749999344348907 -0.009999999776482582 0.0
0.1525000035762787 -0.009999999776482582 0.0
0.1574999988079071 -0.009999999776482582 0.0
0.16249999403953552 -0.009999999776482582 0.0
0.16750000417232513 -0.009999999776482582 0.0
0.17249999940395355 -0.009999999776482582 0.0
0.17749999463558197 -0.009999999776482582 0.0
0.18250000476837158 -0.009999999776482582 0.0
0.1875 -0.009999999776482582 0.0
0.19249999523162842 -0.009999999776482582 0.0
0.19750000536441803 -0.009999999776482582 0.0
0.20000000298023224 -0.004999999888241291 0.0
0.20000000298023224 -2.538941279439655e-14 0.0
0.20000000298023224 0.004999999888241291 0.0
0.20000000298023224 -0.007499999832361937 0.0
0.20000000298023224 -0.0024999999441206455 0.0
0.20000000298023224 0.0024999999441206455 0.0
0.20000000298023224 0.007499999832361937 0.0
0.19499999284744263 0.009999999776482582 0.0
0.1899999976158142 0.009999999776482582 0.0
0.1850000023841858 0.009999999776482582 0.0
0.18000000715255737 0.009999999776482582 0.0
0.17499999701976776 0.009999999776482582 0.0
0.17000000178813934 0.009999999776482582 0.0
0.16500000655651093 0.009999999776482582 0.0
0.1599999964237213 0.009999999776482582 0.0
0.1550000011920929 0.009999999776482582 0.0
0.15000000596046448 0.009999999776482582 0.0
0.14499999582767487 0.009999999776482582 0.0
0.14000000059604645 0.009999999776482582 0.0
0.13500000536441803 0.009999999776482582 0.0
0.12999999523162842 0.009999999776482582 0.0
0.125 0.009999999776482582 0.0
0.11999999731779099 0.009999999776482582 0.0
0.11500000208616257 0.009999999776482582 0.0
0.10999999940395355 0.009999999776482582 0.0
0.10499999672174454 0.009999999776482582 0.0
0.10000000149011612 0.009999999776482582 0.0
0.0949999988079071 0.009999999776482582 0.0
0.09000000357627869 0.009999999776482582 0.0
0.08500000089406967 0.009999999776482582 0.0
0.07999999821186066 0.009999999776482582 0.0
0.07500000298023224 0.009999999776482582 0.0
0.07000000029802322 0.009999999776482582 0.0
0.06499999761581421 0.009999999776482582 0.0
0.05999999865889549 0.009999999776482582 0.0
0.054999999701976776 0.009999999776482582 0.0
0.05000000074505806 0.009999999776482582 0.0
0.04500000178813934 0.009999999776482582 0.0
0.03999999910593033 0.009999999776482582 0.0
0.03500000014901161 0.009999999776482582 0.0
0.029999999329447746 0.009999999776482582 0.0
0.02500000037252903 0.009999999776482582 0.0
0.019999999552965164 0.009999999776482582 0.0
0.014999999664723873 0.009999999776482582 0.0
0.009999999776482582 0.009999999776482582 0.0
0.004999999888241291 0.009999999776482582 0.0
0.19750000536441803 0.009999999776482582 0.0
0.19249999523162842 0.009999999776482582 0.0
0.1875 0.009999999776482582 0.0
0.18250000476837158 0.009999999776482582 0.0
0.17749999463558197 0.009999999776482582 0.0
0.17249999940395355 0.009999999776482582 0.0
0.16750000417232513 0.009999999776482582 0.0
0.16249999403953552 0.009999999776482582 0.0
0.1574999988079071 0.009999999776482582 0.0
0.1525000035762787 0.009999999776482582 0.0
0.14749999344348907 0.009999999776482582 0.0
0.14249999821186066 0.009999999776482582 0.0
0.13750000298023224 0.009999999776482582 0.0
0.13249999284744263 0.009999999776482582 0.0
0.1274999976158142 0.009999999776482582 0.0
0.12250000238418579 0.009999999776482582 0.0
0.11749999970197678 0.009999999776482582 0.0
0.11249999701976776 0.009999999776482582 0.0
0.10750000178813934 0.009999999776482582 0.0
0.10249999910593033 0.009999999776482582 0.0
0.09749999642372131 0.009999999776482582 0.0
0.0925000011920929 0.009999999776482582 0.0
0.08749999850988388 0.009999999776482582 0.0
0.08250000327825546 0.009999999776482582 0.0
0.07750000059604645 0.009999999776482582 0.0
0.07249999791383743 0.009999999776482582 0.0
0.06750000268220901 0.009999999776482582 0.0
0.0625 0.009999999776482582 0.0
0.057500001043081284 0.009999999776482582 0.0
0.05249999836087227 0.009999999776482582 0.0
0.04749999940395355 0.009999999776482582 0.0
0.042500000447034836 0.009999999776482582 0.0
0.03750000149011612 0.009999999776482582 0.0
0.032499998807907104 0.009999999776482582 0.0
0.027499999850988388 0.009999999776482582 0.0
0.02250000089406967 0.009999999776482582 0.0
0.017500000074505806 0.009999999776482582 0.0
0.012500000186264515 0.009999999776482582 0.0
0.007499999832361937 0.009999999776482582 0.0
0.0024999999441206455 0.009999999776482582 0.0
0.0 0.004999999888241291 0.0
0.0 2.538941279439655e-14 0.0
0.0 -0.004999999888241291 0.0
0.0 0.007499999832361937 0.0
0.0 0.0024999999441206455 0.0
0.0 -0.0024999999441206455 0.0
0.0 -0.007499999832361937 0.0
0.004999999888241291 -0.004999999888241291 0.0
0.004999999888241291 2.4119595209981526e-14 0.0
0.004999999888241291 0.004999999888241291 0.0
0.009999999776482582 -0.004999999888241291 0.0
0.009999999776482582 2.285064498730449e-14 0.0
0.009999999776482582 0.004999999888241291 0.0
0.014999999664723873 -0.004999999888241291 0.0
0.014999999664723873 2.158082740288947e-14 0.0
0.014999999664723873 0.004999999888241291 0.0
0.019999999552965164 -0.004999999888241291 0.0
0.019999999552965164 2.0311877180212434e-14 0.0
0.019999999552965164 0.004999999888241291 0.0
0.02500000037252903 -0.004999999888241291 0.0
0.02500000037252903 1.904205959579741e-14 0.0
0.02500000037252903 0.004999999888241291 0.0
0.029999999329447746 -0.004999999888241291 0.0
0.029999999329447746 1.777224201138239e-14 0.0
0.029999999329447746 0.004999999888241291 0.0
0.03500000014901161 -0.004999999888241291 0.0
0.03500000014901161 1.6503291788705354e-14 0.0
0.03500000014901161 0.004999999888241291 0.0
0.03999999910593033 -0.004999999888241291 0.0
0.03999999910593033 1.523347420429033e-14 0.0
0.03999999910593033 0.004999999888241291 0.0
0.04500000178813934 -0.004999999888241291 0.0
0.04500000178813934 1.3964957662482291e-14 0.0
0.04500000178813934 0.004999999888241291 0.0
0.05000000074505806 -0.004999999888241291 0.0
0.05000000074505806 1.2695140078067269e-14 0.0
0.05000000074505806 0.004999999888241291 0.0
0.054999999701976776 -0.004999999888241291 0.0
0.054999999701976776 1.1424888812783252e-14 0.0
0.054999999701976776 0.004999999888241291 0.0
0.05999999865889549 -0.004999999888241291 0.0
0.05999999865889549 1.0155938590106217e-14 0.0
0.05999999865889549 0.004999999888241291 0.0
0.06499999761581421 -0.004999999888241291 0.0
0.06499999761581421 8.886121005691194e-15 0.0
0.06499999761581421 0.004999999888241291 0.0
0.07000000029802322 -0.004999999888241291 0.0
0.07000000029802322 7.617604463883154e-15 0.0
0.07000000029802322 0.004999999888241291 0.0
0.07500000298023224 -0.004999999888241291 0.0
0.07500000298023224 6.347786879468131e-15 0.0
0.07500000298023224 0.004999999888241291 0.0
[...]
POINT_DATA 569
SCALARS stress11 float
LOOKUP_TABLE default
1.1396324038753171e+25
5.112157305579027e+25
5.1153244881652725e+25
1.1386072171507275e+25
-2.6150115470833526e+25
1.1789252735066585e+25
1.385839394981576e+25
-6.5408960774191e+23
-4.687881957168191e+24
5.175865797427488e+25
-6.2750256970667734e+25
-8.071437195855961e+24
9.999127603975608e+25
-3.818944917695006e+25
-4.898308402385716e+25
1.4508000202050223e+25
-1.165059571411578e+25
4.047779095560442e+24
-4.416066434318082e+24
7.029788360188804e+24
-2.430207935314291e+24
-8.118617362339899e+23
-2.866876751763497e+24
-3.4217601535891603e+24
1.4439952862068458e+25
-5.440891312928008e+24
9.958721325397768e+23
-2.70503262712495e+24
7.161097385436641e+24
-2.502071200467782e+24
-9.403347427765755e+24
-2.5944309076671855e+24
9.488516440731778e+24
4.6106603167998177e+24
-1.9220976409207044e+25
4.489232250556203e+25
-1.004921423397983e+25
-1.698579206273165e+25
1.3889305809300045e+25
5.272328828880874e+25
-6.386919321195646e+25
-6.61376786809122e+24
-2.2190260068943584e+25
2.87480786993957e+23
1.4018438439270938e+23
-1.4521184555836314e+22
4.271904602895124e+22
1.4185908833484023e+23
-1.2063714856927588e+23
2.7763186259321097e+22
3.388947017535963e+23
-2.4141725439506083e+23
-1.4918443892217755e+23
2.8061799762094208e+23
-3.2948399130539027e+22
-8.097663580007309e+22
1.931043929284467e+22
-4.169137486915447e+21
2.3552286631102398e+21
-9.250262525691407e+21
1.361147499551367e+22
6.719735982029516e+20
3.2439118634453307e+22
-2.065592637567778e+22
-9.21521768949652e+21
2.8454153663848676e+22
9.351789948907836e+21
-5.917487628132928e+21
-2.2529795234987394e+22
2.3180758456028514e+22
2.8945883628235162e+22
-1.0615089662966379e+22
-3.67473594660305e+22
1.1559396697940922e+23
-1.972977960057988e+22
-7.3057136934703895e+22
1.497281260845091e+23
9.769233472074356e+22
-1.692069975555266e+23
7.031215429089812e+22
2.1036115567280905e+23
1.8317546369318375e+23
5.8990425872075404e+23
5.248999572246463e+25
5.249531403046165e+25
5.249780731451541e+25
5.253290061768296e+25
5.257423942987555e+25
5.2572817240897675e+25
5.253154065427223e+25
-2.216074078194357e+25
-6.584114009835998e+24
-6.384124159951619e+25
5.275150841167305e+25
1.3917387425976516e+25
-1.695888686878637e+25
-1.0023717187586463e+25
4.491682626116245e+25
-1.919728141552313e+25
4.633431364963571e+24
9.510152005140184e+24
-2.573985171132467e+24
-9.383895455534784e+24
-2.483841565757457e+24
7.178261394339339e+24
-2.6889130672353356e+24
1.010901532903769e+24
-5.427047413943269e+24
1.4452814619676154e+25
-3.409922165040198e+24
-2.856298590535796e+24
-8.022329341201547e+23
-2.421759760011026e+24
7.037219504675834e+24
-4.409592124635921e+24
4.052989266845814e+24
-1.1646381790350305e+25
1.451116033512469e+25
-4.898091082043701e+25
-3.818961614506009e+25
9.999149938328715e+25
-8.072652344708638e+24
-6.275244282559259e+25
5.175533577786421e+25
-4.692250891143979e+24
-6.594875674884646e+23
1.3851935452573088e+25
1.1781574203387457e+25
-2.615884494248911e+25
6.242658881934346e+23
2.1761701721316314e+23
2.452601069661774e+23
1.0448290373181593e+23
-1.3602332071413161e+23
1.2975057287341701e+23
1.8061983286800517e+23
-4.232330631856768e+22
8.744228724886588e+21
1.42854802115852e+23
-1.0691796980971094e+22
1.4212119756810217e+22
5.2539796882465434e+22
4.544823314157055e+22
-1.385722613727945e+21
1.4013303739117906e+22
2.806126328770046e+22
4.594026666279084e+22
7.05241645113113e+21
-5.598313584382588e+21
4.627567459647372e+22
1.3286593175436535e+22
2.500190121900757e+22
9.20402172587639e+20
1.1316334313231239e+22
3.582879822331907e+21
2.5850854772139727e+22
-7.563673831410341e+22
-2.8817817013978288e+22
2.835357849752301e+23
-1.4750478723376244e+23
-2.4089364289482705e+23
3.381845615614066e+23
2.5845421395793095e+22
-1.2366878524140286e+23
1.3755030691232525e+23
3.7224318523589477e+22
-2.1249939396032635e+22
1.3209331282455031e+23
2.7820425548356488e+23
1.2345964473228383e+25
1.2417611092998155e+25
1.2348602275848476e+25
1.2152887636121298e+25
1.2339158918102592e+25
1.233901783484609e+25
1.215398344983659e+25
-2.835240972195763e+25
-2.830116393366669e+25
-2.835393464813318e+25
1.2687663649743673e+25
1.2664375656081375e+25
1.2686401312631463e+25
1.4537925508379462e+25
1.451003428094599e+25
1.4537000221102791e+25
-8.542740260024973e+23
-8.531211721339273e+23
-8.548293089688417e+23
-5.821797830026382e+24
-5.81336166507069e+24
-5.821982300110345e+24
5.614909438436488e+25
5.604703785501766e+25
5.614925129685407e+25
-6.753957522222287e+25
-6.741576983026295e+25
-6.753893877855246e+25
-9.185034669747353e+24
-9.169210286092118e+24
-9.184096311970956e+24
1.0721800405623493e+26
1.0702072851629872e+26
1.0721929032581861e+26
-4.148170403241014e+25
-4.140659098450004e+25
-4.147994041038948e+25
-5.182316115710179e+25
-5.172605868223744e+25
-5.1821003235018115e+25
1.6369569383385965e+25
1.6341218340304208e+25
1.6372039364156602e+25
-1.2711520885647559e+25
-1.2688484955749682e+25
-1.2708653083302363e+25
4.564672411600235e+24
4.55761044471383e+24
4.5678728630401054e+24
-4.885562044456147e+24
-4.87586769867633e+24
-4.881939203205723e+24
7.591142210264113e+24
7.57865816968573e+24
7.595099577215784e+24
-2.6939913814100185e+24
-2.687731915374248e+24
-2.6897198149716827e+24
-7.917829277583672e+23
-7.883834831721527e+23
-7.871160728154528e+23
-2.995814413966103e+24
-2.98810844136774e+24
-2.990803056858305e+24
-3.8331383202473193e+24
-3.8242316043983656e+24
-3.827744445124228e+24
1.5514932214163275e+25
1.5488970648593693e+25
1.5520659184449395e+25
-6.044924256043083e+24
-6.031627591763366e+24
-6.038875738035008e+24
1.1826907336091429e+24
1.1837344982122777e+24
1.1891145978920742e+24
-3.0177544363817697e+24
-3.009427552016449e+24
-3.010972036903514e+24
7.701987904872277e+24
7.691093743195316e+24
7.709091468513495e+24
-2.642146565238956e+24
-2.6337914349852685e+24
-2.6346983359764195e+24
-9.948261224786207e+24
-9.9259393297154e+24
-9.940436360531507e+24
-2.775809435341303e+24
-2.7667197325017395e+24
-2.7676442357132926e+24
1.0056588114028128e+25
1.0042054208075106e+25
1.0065082273709635e+25
5.055781943918412e+24
5.051604957979839e+24
5.064659718082576e+24
-2.1260417153809823e+25
-2.121774794662624e+25
-2.1251207731770945e+25
4.82579156048056e+25
4.817480993437638e+25
4.8267467854618675e+25
-1.1170977564595727e+25
-1.1145699006479164e+25
-1.1161050756209404e+25
-1.8164105128531915e+25
-1.8124276125200987e+25
-1.8153824565475488e+25
1.4196144515111047e+25
1.4174560125907145e+25
1.420686632585733e+25
5.689778534136032e+25
5.680044272424301e+25
5.690864562648917e+25
-6.884672186235666e+25
-6.871386787123468e+25
-6.883525119461087e+25
-5.836700416743783e+24
-5.813998287070281e+24
-5.824409066208058e+24
-2.4634329797719177e+25
-2.457783826823703e+25
-2.4620877592814774e+25
-2.8311544115978914e+25
-1.0353414316105363e+23
-2.834484562770801e+25
-1.0954712706977518e+23
-2.834484608084557e+25
-1.0549826192737822e+23
-2.831166952975717e+25
1.2665808734466023e+25
-1.0092232652047418e+23
1.267646284800886e+25
-1.087068127802229e+23
1.26762792458774e+25
-1.0214895201776298e+23
1.2665304190400326e+25
1.4567357987172982e+25
1.726744007532267e+23
1.4591994854891543e+25
1.8629758811432594e+23
1.4591771525152915e+25
1.7183684719761352e+23
1.456668492730311e+25
-8.458022490087252e+23
8.375753386647432e+22
-8.428690721141955e+23
9.13254022821519e+22
-8.431445922238911e+23
8.336244549887632e+22
-8.466635936616659e+23
-5.719330641136336e+24
-5.169985067508076e+22
-5.701777433012221e+24
-5.286679751189798e+22
-5.702123219850279e+24
-5.161133349271778e+22
-5.720403525050377e+24
5.6037477906064225e+25
3.208906091248624e+23
5.607839687839742e+25
3.460988441988217e+23
5.607796711780822e+25
3.21465107807737e+23
5.6036161218635436e+25
-6.748407665762251e+25
-6.846290564529423e+22
-6.755424492289209e+25
-7.538206615289877e+22
-6.755468961132764e+25
-6.739485946975007e+22
-6.748545791131088e+25
-9.1176630662475e+24
-4.989812668506323e+23
-9.111871487183034e+24
-5.3505551198076385e+23
-9.112429849359746e+24
-4.9742475522734806e+23
-9.119363089014316e+24
1.0717187794505868e+26
6.214632341869367e+23
1.0729298009733601e+26
6.723125446477646e+23
1.072923493423101e+26
6.235018285198787e+23
1.0716998560265008e+26
-4.139441567298889e+25
4.147372474371765e+23
-4.142532541418112e+25
4.495607787641331e+23
-4.142599173735892e+25
4.172721879731887e+23
-4.1396472831111976e+25
-5.1889861560968895e+25
-5.9675424504779005e+23
-5.197302784450804e+25
-6.433541549845578e+23
-5.197373459508497e+25
-5.937279800491008e+23
-5.189202886170073e+25
1.6265853000933166e+25
-2.1275033268658292e+23
1.6256370387123817e+25
-2.3402213423255475e+23
1.6255554704198495e+25
-2.0923147592914517e+23
1.6263382537854607e+25
-1.2670294895636117e+25
2.768828880322024e+22
-1.2678701110914058e+25
2.8747544728856217e+22
-1.26795728543661e+25
3.1690872566246793e+22
-1.267292951903794e+25
4.534786140477536e+24
-5.388676881678791e+22
4.531889115264486e+24
-5.666910729608642e+22
4.5309332805776787e+24
-4.940446590339881e+22
4.5318978079547444e+24
-4.860636184532951e+24
-3.4219089803334763e+21
-4.862693588961597e+24
-2.1003698390878556e+21
-4.863683770763399e+24
1.5328472100372019e+21
-4.863627617481079e+24
7.582796216075664e+24
1.397205912467499e+22
7.588497925032693e+24
1.7569065767877132e+22
7.587429501559682e+24
1.939103863029227e+22
7.579578390217992e+24
-2.678162087690043e+24
2.842536220200843e+22
-2.679862711675143e+24
3.32331056225442e+22
-2.6810177198008595e+24
3.430808442326462e+22
-2.681640225731202e+24
-7.983402688048392e+23
-2.5189147769220314e+22
-8.034016891050034e+23
-2.439453119487866e+22
-8.046041593334335e+23
-1.8842441761523201e+22
-8.019481175238711e+23
-3.00168089126838e+24
-2.5674168766687814e+22
-3.00927548500266e+24
-2.52123846826828e+22
-3.010549487960144e+24
-1.8864961619363713e+22
-3.005512893948699e+24
-3.8065238206183526e+24
-4.775170621749565e+22
-3.807233737012484e+24
-4.785716140088852e+22
-3.8085567482512017e+24
-4.047974816741593e+22
-3.810499117056093e+24
1.5506937179729924e+25
6.965238403017433e+22
1.5521979144514312e+25
7.923338206329524e+22
1.5520580487165634e+25
7.738209835723469e+22
1.5502741879812065e+25
-6.010901902852494e+24
5.498158118268485e+22
-6.012829305060582e+24
6.3856026257950436e+22
-6.014305016135804e+24
6.3167790443736825e+22
-6.015333388348046e+24
1.1702051356394974e+24
-3.6087761045917436e+22
1.1660095703505649e+24
-3.4355776747134616e+22
1.1644823070210925e+24
-2.7446810084037626e+22
1.1656237379255017e+24
-2.996096183433792e+24
-1.601661560815782e+22
-2.9977138436809366e+24
-1.2780133898296448e+22
-2.999299834140358e+24
-6.920537740751206e+21
-3.0008631388940275e+24
7.701044151783325e+24
2.447202907599445e+22
7.707146017567891e+24
3.145926563837107e+22
7.70547885715538e+24
3.4022100605056447e+22
7.696050203458204e+24
-2.639684240829046e+24
2.825550022082182e+22
-2.6462147639242294e+24
3.5242993553957057e+22
-2.647948054866705e+24
3.825970837035887e+22
-2.644879040969474e+24
-9.955707427340968e+24
-8.380363149276425e+22
-9.973690893743898e+24
-8.568507208641834e+22
-9.975477357300647e+24
-7.334135242250874e+22
-9.961060033636111e+24
-2.769666631431341e+24
-8.494534471586637e+22
-2.775300527317108e+24
-8.648952212762273e+22
-2.7771536645664444e+24
-7.402684642112204e+22
-2.7752257596284874e+24
1.0074213676681766e+25
3.990492566987147e+22
1.0086754902693531e+25
4.938041088621934e+22
1.0084826584579738e+25
5.127711977351473e+22
1.0068435475698084e+25
5.040763821249412e+24
9.099346595716843e+22
5.040440427951544e+24
1.0449286497957783e+23
5.038460385109274e+24
1.0282292654277131e+23
5.034831593777064e+24
-2.1163426989543356e+25
-1.1502817936968274e+23
-2.116933239213756e+25
-1.1535122807568046e+23
-2.1171388009617825e+25
-1.0273641669669648e+23
-2.116958191022331e+25
4.8224152168900945e+25
1.6113028397191602e+23
4.827227883000338e+25
1.827165409686396e+23
4.827015186384661e+25
1.73878644762073e+23
4.821779707007459e+25
-1.1109256398707874e+25
2.2807105594006912e+23
-1.1112848121006126e+25
2.5429416474571506e+23
-1.1115025342100243e+25
2.4125407629123494e+23
-1.1115777521827669e+25
-1.8165826167717717e+25
-1.9883723273903587e+23
-1.8191073601773137e+25
-2.0527184291701233e+23
-1.8193312604900608e+25
-1.8517393645935336e+23
-1.8172544010996789e+25
1.4286604628100259e+25
-3.9256808313823045e+22
1.4321445122286305e+25
-3.1853302238134063e+22
1.4319183496614442e+25
-2.513954383141061e+22
1.4279838583259057e+25
5.682981754610105e+25
4.4459817333478204e+23
5.687889507889821e+25
4.889551059914356e+23
5.687642321533971e+25
4.5917879776749545e+23
5.682249717254404e+25
-6.8765357799213074e+25
-8.014185916429253e+22
-6.883823183089653e+25
-7.786925548502075e+22
-6.884083829614559e+25
-6.497245640384408e+22
-6.877284981545005e+25
-6.00211119953276e+24
-4.760326876628206e+23
-6.057196960957235e+24
-5.067810052662067e+23
-6.059870344339799e+24
-4.599643528259606e+23
-6.009664771615817e+24
-2.4535731907663297e+25
-1.9723916914949764e+23
-2.455256613197117e+25
-2.0300488024971985e+23
-2.4553338685892276e+25
-1.8037761741246643e+23
-2.4540843670137284e+25
1.5768317320863887e+23
1.9244105923301786e+23
1.7014526657312533e+23
SCALARS stress22 float
LOOKUP_TABLE default
4.892572112654895e+24
2.190945635146054e+25
2.1921380484459046e+25
4.869846111167126e+24
-1.1198712562257168e+25
5.060954903241749e+24
5.947644822121492e+24
-2.7205877313252548e+23
-2.0008971405383703e+24
2.2190428814525657e+25
-2.6884859730307745e+25
-3.4511444210282986e+24
4.286142698992867e+25
-1.6358909372362877e+25
-2.098481721027266e+25
6.225589136015178e+24
-4.985276129186103e+24
1.7425557263076567e+24
-1.884886257676169e+24
3.02042759659024e+24
-1.0339195365251661e+24
-3.403856158892976e+23
-1.221195777225033e+24
-1.4590754024925358e+24
6.195853522322195e+24
-2.324568942999599e+24
4.339809011899738e+23
-1.1522062115555011e+24
3.0760774194340064e+24
-1.0653508950855919e+24
-4.023084146706529e+24
-1.1050708856236664e+24
4.073243595093837e+24
1.9826798262757445e+24
-8.230935602219375e+24
1.9246188614095636e+25
-4.300245340316722e+24
-7.273176653905709e+24
5.959019980043442e+24
2.260221010769088e+25
-2.736603015693112e+25
-2.827904143221867e+24
-9.503101598738283e+24
1.3174769255267738e+23
6.838296815352803e+22
1.857412336783756e+21
2.619077513220048e+22
6.848404743928986e+22
-4.4208436752912484e+22
1.918612504333794e+22
1.5234207993443604e+23
-9.653747963900557e+22
-5.722607743540701e+22
1.2683712197505316e+23
-7.702658340635453e+21
-2.845707249817965e+22
1.4337594800771487e+22
4.105224588035512e+21
6.710478165557538e+21
1.547107445953295e+21
1.115321005397582e+22
5.408806418836999e+21
1.8827627262003852e+22
-4.1368358936974144e+21
5.701088225368306e+20
1.650291454176951e+22
8.113662330077071e+21
1.368784912847546e+21
-5.945904211782183e+21
1.3439824531698806e+22
1.5717662551974303e+22
-1.4545588381547705e+21
-1.2851561368151847e+22
5.224706251445276e+22
-5.923881002100545e+21
-2.903918987572506e+22
6.631002548836275e+22
4.3866855265613795e+22
-7.066826251276628e+22
3.188872562598614e+22
9.179852911003527e+22
8.014132222799395e+22
2.533166007565592e+23
2.24948381352865e+25
2.249744581328874e+25
2.2498853425020035e+25
2.2513550981713214e+25
2.253160897972926e+25
2.253121043710278e+25
2.251385385128414e+25
-9.504483087679362e+24
-2.8284462732955167e+24
-2.736718835061082e+25
2.26011347206937e+25
5.957840799869409e+24
-7.274843534435941e+24
-4.302776116447324e+24
1.9243052180237567e+25
-8.234580121992388e+24
1.9784637184793527e+24
4.068359349495416e+24
-1.1106642219180849e+24
-4.0293129232774427e+24
-1.0722720310766048e+24
3.0684891448272474e+24
-1.1604016573295835e+24
4.2511337202304285e+23
-2.3341443048510411e+24
6.18570508444039e+24
-1.4698660832304372e+24
-1.2327200536636958e+24
-3.525090927269269e+23
-1.0467006556156194e+24
3.0070238937098945e+24
-1.8988746059115576e+24
1.7278511156793508e+24
-5.000543536577015e+24
6.209779796413196e+24
-2.1001191091040053e+25
-1.6376391317141426e+25
4.284400434408793e+25
-3.469301369521937e+24
-2.6903557514413225e+25
2.2171125205567785e+25
-2.0207532983497314e+24
-2.9246730134162158e+23
5.926645442175283e+24
5.039276617726963e+24
-1.1220943679214113e+25
2.6679132758207112e+23
9.154343427964733e+22
1.0330679368946649e+23
4.280769826784933e+22
-6.05175059406482e+22
5.325398529540992e+22
7.486311070609931e+22
-2.1025772279690376e+22
6.929165795883787e+20
5.791425420068796e+22
-8.132778573455312e+21
2.2954158802159786e+21
1.8471079661908257e+22
1.5171149325615384e+22
-5.143067279512278e+21
1.207487767640879e+21
6.981289512992269e+21
1.439543908357999e+22
-2.5030930902823794e+21
-8.173418879574411e+21
1.382456773811141e+22
-5.601614731172968e+20
4.2205920836300015e+21
-6.345550896231631e+21
-2.1374508020852987e+21
-5.687048335340515e+21
3.6194740074026075e+21
-4.008118088415077e+22
-2.022786646414756e+22
1.1341302827942053e+23
-7.1546519288725685e+22
-1.1173135918057941e+23
1.3623343426216065e+23
2.1709388892959807e+21
-6.207595211059233e+22
4.969347882032411e+22
6.509688771574248e+21
-1.8744945491162215e+22
4.6768604953504465e+22
1.0917196924619482e+23
5.290247915925034e+24
5.32081996111351e+24
5.294712559464521e+24
5.208380969926153e+24
5.28875278756847e+24
5.287593586243195e+24
5.2088174953173e+24
-1.2148240971577226e+25
-1.2130164792345008e+25
-1.2152733269089425e+25
5.440414285527555e+24
5.426495523546896e+24
5.435940687425252e+24
6.233388634203138e+24
6.217478210708201e+24
6.229050163286657e+24
-3.632656815357058e+23
-3.667283825902566e+23
-3.674343161044393e+23
-2.49221086320262e+24
-2.492559740912337e+24
-2.496209666175325e+24
2.4066742438427437e+25
2.4019028770946093e+25
2.406290790164102e+25
-2.89426562463445e+25
-2.889357866190621e+25
-2.8946302836858913e+25
-3.933563557768546e+24
-3.930743363464758e+24
-3.9370819589827516e+24
4.5953447077037315e+25
4.586496143039769e+25
4.595008412941815e+25
-1.7775026938031094e+25
-1.7746732201880166e+25
-1.7778192382647657e+25
-2.220712223972621e+25
-2.2169319030429635e+25
-2.2210120908475902e+25
7.018306988735216e+24
7.002391302738175e+24
7.015463682360716e+24
-5.445046716145526e+24
-5.438898455490219e+24
-5.447730494112832e+24
1.9590191339994834e+24
1.9523076539124462e+24
1.9564636409605923e+24
-2.0911038945827276e+24
-2.0906063773217256e+24
-2.0935010393854182e+24
3.256044525996655e+24
3.2470938177556507e+24
3.253766459646452e+24
-1.1518813661259109e+24
-1.1527523234350225e+24
-1.1540488768177327e+24
-3.366511724630294e+23
-3.3870613949633916e+23
-3.386792111795523e+23
-1.2812494534623215e+24
-1.2814254099552903e+24
-1.2831771795797704e+24
-1.6401037303109818e+24
-1.6397363025259104e+24
-1.6418995229909697e+24
6.651906401689027e+24
6.637378856896562e+24
6.650224091134398e+24
-2.588038234434457e+24
-2.585700330963206e+24
-2.589622236635762e+24
5.0952586424552164e+23
5.066361777377731e+23
5.0805906723426695e+23
-1.2906717216347376e+24
-1.2904001460325694e+24
-1.2920362186009028e+24
3.3034901089323545e+24
3.2955789507647046e+24
3.3022200189345636e+24
-1.1297114694788198e+24
-1.129326295361551e+24
-1.1308790471018522e+24
-4.260894715849384e+24
-4.254478672555788e+24
-4.2619481065070957e+24
-1.1870038667253508e+24
-1.1862173565047729e+24
-1.1879524848950142e+24
4.312572264649486e+24
4.3032919345009673e+24
4.3117139370825566e+24
2.1693718366748471e+24
2.1645889561388018e+24
2.1686363050067193e+24
-9.108999903569693e+24
-9.093644795059677e+24
-9.109631356927502e+24
2.068456958814001e+25
2.064607253825675e+25
2.068404317659378e+25
-4.784957821641859e+24
-4.776954380344028e+24
-4.7853745794087976e+24
-7.781992848115045e+24
-7.767695109980812e+24
-7.782310285198429e+24
6.086614173361931e+24
6.074643727001634e+24
6.086434287062453e+24
2.438735011267868e+25
2.434295397693042e+25
2.4387153998028463e+25
-2.9503199312380794e+25
-2.944889161207686e+25
-2.9503169187854357e+25
-2.4990189369611775e+24
-2.491770751411071e+24
-2.498457893446226e+24
-1.0555839561281051e+25
-1.05333946141913e+25
-1.0553477865000963e+25
-1.213337485836597e+25
-4.157231599702761e+22
-1.2147724626358171e+25
-4.804129049336199e+22
-1.2147858644225452e+25
-4.627120485030256e+22