# vtk DataFile Version 2.0
Generated Volume Mesh
ASCII
DATASET UNSTRUCTURED_GRID
POINTS 569 float
0.0 -0.01 0.0
0.2 -0.01 0.0
0.2 0.01 0.0
0.0 0.01 0.0
0.004999999999990963 -0.01 0.0
0.009999999999980603 -0.01 0.0
0.01499999999997201 -0.01 0.0
0.01999999999996497 -0.01 0.0
0.02499999999995712 -0.01 0.0
0.02999999999994344 -0.01 0.0
0.03499999999992909 -0.01 0.0
0.03999999999991203 -0.01 0.0
0.04499999999989768 -0.01 0.0
0.04999999999988333 -0.01 0.0
0.05499999999986898 -0.01 0.0
0.05999999999985461 -0.01 0.0
0.06499999999984028 -0.01 0.0
0.06999999999982592 -0.01 0.0
0.07499999999980886 -0.01 0.0
0.0799999999997918 -0.01 0.0
0.08499999999977745 -0.01 0.0
0.0899999999997631 -0.01 0.0
0.09499999999974874 -0.01 0.0
0.0999999999997371 -0.01 0.0
0.1049999999997488 -0.01 0.0
0.1099999999997604 -0.01 0.0
0.1149999999997748 -0.01 0.0
0.1199999999997886 -0.01 0.0
0.1249999999998008 -0.01 0.0
0.1299999999998173 -0.01 0.0
0.1349999999998279 -0.01 0.0
0.1399999999998396 -0.01 0.0
0.1449999999998577 -0.01 0.0
0.1499999999998672 -0.01 0.0
0.1549999999998767 -0.01 0.0
0.1599999999998948 -0.01 0.0
0.1649999999999065 -0.01 0.0
0.1699999999999171 -0.01 0.0
0.1749999999999363 -0.01 0.0
0.1799999999999458 -0.01 0.0
0.1849999999999585 -0.01 0.0
0.1899999999999756 -0.01 0.0
0.1949999999999851 -0.01 0.0
0.002499999999995455 -0.01 0.0
0.007499999999986087 -0.01 0.0
0.01249999999997554 -0.01 0.0
0.01749999999996855 -0.01 0.0
0.02249999999996104 -0.01 0.0
0.02749999999995028 -0.01 0.0
0.03249999999993627 -0.01 0.0
0.03749999999992056 -0.01 0.0
0.04249999999990486 -0.01 0.0
0.0474999999998905 -0.01 0.0
0.05249999999987616 -0.01 0.0
0.0574999999998618 -0.01 0.0
0.06249999999984745 -0.01 0.0
0.0674999999998331 -0.01 0.0
0.07249999999981739 -0.01 0.0
0.07749999999980034 -0.01 0.0
0.08249999999978462 -0.01 0.0
0.08749999999977028 -0.01 0.0
0.09249999999975592 -0.01 0.0
0.09749999999974292 -0.01 0.0
0.1024999999997434 -0.01 0.0
0.1074999999997551 -0.01 0.0
0.1124999999997679 -0.01 0.0
0.1174999999997827 -0.01 0.0
0.1224999999997936 -0.01 0.0
0.1274999999998062 -0.01 0.0
0.132499999999822 -0.01 0.0
0.1374999999998325 -0.01 0.0
0.1424999999998486 -0.01 0.0
0.1474999999998629 -0.01 0.0
0.1524999999998725 -0.01 0.0
0.1574999999998845 -0.01 0.0
0.1624999999999003 -0.01 0.0
0.1674999999999127 -0.01 0.0
0.172499999999927 -0.01 0.0
0.1774999999999416 -0.01 0.0
0.1824999999999521 -0.01 0.0
0.1874999999999665 -0.01 0.0
0.1924999999999823 -0.01 0.0
0.1974999999999922 -0.01 0.0
0.2 -0.005000000000010828 0.0
0.2 -2.538941279439655e-14 0.0
0.2 0.004999999999987136 0.0
0.2 -0.00750000000000295 0.0
0.2 -0.002500000000017425 0.0
0.2 0.002499999999982709 0.0
0.2 0.007499999999991696 0.0
0.1950000000000139 0.01 0.0
0.1900000000000277 0.01 0.0
0.1850000000000415 0.01 0.0
0.1800000000000553 0.01 0.0
0.1750000000000692 0.01 0.0
0.170000000000083 0.01 0.0
0.1650000000000968 0.01 0.0
0.1600000000001107 0.01 0.0
0.1550000000001245 0.01 0.0
0.1500000000001384 0.01 0.0
0.1450000000001522 0.01 0.0
0.140000000000166 0.01 0.0
0.1350000000001799 0.01 0.0
0.1300000000001937 0.01 0.0
0.1250000000002075 0.01 0.0
0.1200000000002214 0.01 0.0
0.1150000000002352 0.01 0.0
0.110000000000249 0.01 0.0
0.1050000000002629 0.01 0.0
0.100000000000274 0.01 0.0
0.09500000000026176 0.01 0.0
0.09000000000024955 0.01 0.0
0.08500000000023465 0.01 0.0
0.08000000000022028 0.01 0.0
0.07500000000020751 0.01 0.0
0.07000000000019044 0.01 0.0
0.0650000000001793 0.01 0.0
0.06000000000016711 0.01 0.0
0.0550000000001484 0.01 0.0
0.05000000000013835 0.01 0.0
0.0450000000001283 0.01 0.0
0.04000000000010959 0.01 0.0
0.0350000000000974 0.01 0.0
0.03000000000008626 0.01 0.0
0.02500000000006647 0.01 0.0
0.02000000000005642 0.01 0.0
0.01500000000004315 0.01 0.0
0.01000000000002552 0.01 0.0
0.005000000000015492 0.01 0.0
0.1975000000000092 0.01 0.0
0.1925000000000205 0.01 0.0
0.1875000000000343 0.01 0.0
0.1825000000000489 0.01 0.0
0.1775000000000627 0.01 0.0
0.1725000000000761 0.01 0.0
0.1675000000000899 0.01 0.0
0.1625000000001038 0.01 0.0
0.1575000000001176 0.01 0.0
0.1525000000001314 0.01 0.0
0.1475000000001453 0.01 0.0
0.1425000000001591 0.01 0.0
0.137500000000173 0.01 0.0
0.1325000000001867 0.01 0.0
0.1275000000002006 0.01 0.0
0.1225000000002144 0.01 0.0
0.1175000000002283 0.01 0.0
0.1125000000002421 0.01 0.0
0.1075000000002559 0.01 0.0
0.1025000000002684 0.01 0.0
0.09750000000026633 0.01 0.0
0.09250000000025538 0.01 0.0
0.08750000000024319 0.01 0.0
0.08250000000022609 0.01 0.0
0.07750000000021434 0.01 0.0
0.07250000000019938 0.01 0.0
0.06750000000018136 0.01 0.0
0.06250000000017095 0.01 0.0
0.05750000000016026 0.01 0.0
0.05250000000014343 0.01 0.0
0.04750000000013399 0.01 0.0
0.04250000000011994 0.01 0.0
0.03750000000010362 0.01 0.0
0.03250000000009365 0.01 0.0
0.02750000000007519 0.01 0.0
0.02250000000005931 0.01 0.0
0.01750000000004931 0.01 0.0
0.01250000000003648 0.01 0.0
0.007500000000019047 0.01 0.0
0.002500000000006192 0.01 0.0
0.0 0.005000000000010828 0.0
0.0 2.538941279439655e-14 0.0
0.0 -0.004999999999987136 0.0
0.0 0.00750000000000295 0.0
0.0 0.002500000000017425 0.0
0.0 -0.002499999999982709 0.0
0.0 -0.007499999999991696 0.0
0.004999999999997094 -0.004999999999987727 0.0
0.005000000000003228 2.411959520998152e-14 0.0
0.005000000000009359 0.005000000000010233 0.0
0.009999999999991828 -0.00499999999998832 0.0
0.01000000000000306 2.285064498730449e-14 0.0
0.01000000000001429 0.005000000000009642 0.0
0.01499999999998979 -0.00499999999998891 0.0
0.01500000000000757 2.158082740288947e-14 0.0
0.01500000000002536 0.005000000000009051 0.0
0.01999999999998783 -0.004999999999989502 0.0
0.02000000000001069 2.031187718021243e-14 0.0
0.02000000000003356 0.005000000000008457 0.0
0.02499999999998446 -0.004999999999990098 0.0
0.02500000000001179 1.904205959579741e-14 0.0
0.02500000000003914 0.005000000000007864 0.0
0.02999999999997915 -0.004999999999990686 0.0
0.03000000000001485 1.777224201138239e-14 0.0
0.03000000000005056 0.005000000000007274 0.0
0.03499999999997118 -0.00499999999999128 0.0
0.03500000000001325 1.650329178870535e-14 0.0
0.03500000000005533 0.005000000000006681 0.0
0.03999999999996142 -0.004999999999991873 0.0
0.04000000000001081 1.523347420429033e-14 0.0
0.04000000000006019 0.005000000000006089 0.0
0.04499999999995533 -0.004999999999992464 0.0
0.04500000000001299 1.396495766248229e-14 0.0
0.04500000000007065 0.005000000000005497 0.0
0.04999999999994709 -0.004999999999993056 0.0
0.05000000000001084 1.269514007806727e-14 0.0
0.05000000000007461 0.005000000000004904 0.0
0.05499999999993883 -0.004999999999993651 0.0
0.05500000000000869 1.142488881278325e-14 0.0
0.05500000000007854 0.005000000000004311 0.0
0.05999999999993273 -0.004999999999994243 0.0
0.06000000000001086 1.015593859010622e-14 0.0
0.06000000000008898 0.005000000000003719 0.0
0.06499999999992503 -0.004999999999994832 0.0
0.06500000000000979 8.886121005691193e-15 0.0
0.06500000000009454 0.005000000000003126 0.0
0.06999999999991705 -0.004999999999995426 0.0
0.07000000000000817 7.617604463883153e-15 0.0
0.07000000000009932 0.005000000000002535 0.0
0.07499999999990853 -0.00499999999999602 0.0
0.07500000000000817 6.347786879468131e-15 0.0
0.07500000000010784 0.005000000000001941 0.0
0.0799999999998989 -0.004999999999996613 0.0
0.08000000000000605 5.077535614184114e-15 0.0
0.08000000000011315 0.00500000000000135 0.0
0.08499999999989175 -0.004999999999997203 0.0
0.08500000000000604 3.809019072376073e-15 0.0
0.08500000000012034 0.005000000000000759 0.0
0.08999999999988471 -0.004999999999997795 0.0
0.09000000000000632 2.538767807092057e-15 0.0
0.09000000000012796 0.005000000000000165 0.0
0.09499999999987702 -0.004999999999998389 0.0
0.09500000000000525 1.269817584415023e-15 0.0
0.0950000000001335 0.004999999999999572 0.0
0.0999999999998713 -0.004999999999998979 0.0
0.1000000000000055 0.0 0.0
0.1000000000001398 0.00499999999999898 0.0
0.1049999999998773 -0.004999999999999573 0.0
0.1050000000000058 -1.269817584415023e-15 0.0
0.1050000000001343 0.004999999999998389 0.0
0.1099999999998826 -0.005000000000000167 0.0
0.1100000000000047 -2.538767807092057e-15 0.0
0.1100000000001269 0.004999999999997796 0.0
0.1149999999998898 -0.005000000000000759 0.0
0.115000000000005 -3.808585391507079e-15 0.0
0.1150000000001201 0.004999999999997204 0.0
0.1199999999998968 -0.005000000000001348 0.0
0.120000000000005 -5.077535614184114e-15 0.0
0.1200000000001132 0.004999999999996612 0.0
0.1249999999999025 -0.005000000000001942 0.0
0.1250000000000041 -6.347570039033633e-15 0.0
0.1250000000001058 0.004999999999996019 0.0
0.1299999999999114 -0.005000000000002535 0.0
0.1300000000000055 -7.617387623448655e-15 0.0
0.1300000000000996 0.004999999999995426 0.0
0.1349999999999159 -0.005000000000003124 0.0
0.1350000000000039 -8.886121005691193e-15 0.0
0.1350000000000919 0.004999999999994834 0.0
0.1399999999999212 -0.005000000000003718 0.0
0.1400000000000028 -1.015593859010622e-14 0.0
0.1400000000000844 0.004999999999994243 0.0
0.1449999999999313 -0.005000000000004313 0.0
0.145000000000005 -1.142488881278325e-14 0.0
0.1450000000000786 0.004999999999993649 0.0
0.149999999999935 -0.005000000000004905 0.0
0.1500000000000028 -1.269492323763277e-14 0.0
0.1500000000000706 0.004999999999993059 0.0
0.1549999999999386 -0.005000000000005495 0.0
0.1550000000000006 -1.39645239816133e-14 0.0
0.1550000000000625 0.004999999999992468 0.0
0.1599999999999488 -0.005000000000006088 0.0
0.1600000000000028 -1.523369104472483e-14 0.0
0.1600000000000567 0.004999999999991874 0.0
0.164999999999954 -0.005000000000006681 0.0
0.1650000000000017 -1.650350862913985e-14 0.0
0.1650000000000492 0.00499999999999128 0.0
0.1699999999999586 -0.005000000000007271 0.0
0.17 -1.777224201138239e-14 0.0
0.1700000000000416 0.00499999999999069 0.0
0.1749999999999695 -0.005000000000007865 0.0
0.1750000000000027 -1.904162591492841e-14 0.0
0.175000000000036 0.004999999999990097 0.0
0.1799999999999731 -0.005000000000008458 0.0
0.1800000000000005 -2.031176875999518e-14 0.0
0.180000000000028 0.004999999999989503 0.0
[...]
POINT_DATA 569
SCALARS stress11 float
LOOKUP_TABLE default
-227524751.234375
-260880752540.1328
260880952886.53125
227524838.125
-3215724002.9921875
-11519279554.273438
-18142411002.085938
-24086386051.335938
-30027952335.625
-35986584331.78906
-41936420847.55469
-47890689834.16797
-53829654015.60547
-59771668820.09766
-65719917893.208984
-71661736830.7207
-77619499711.90039
-83566913240.38086
-89518143610.6582
-95461477013.50488
-101406756594.9248
-107356690183.66162
-113296796984.24585
-119236818555.6167
-125168954802.80566
-131098465412.55566
-137027475875.27148
-142953855867.64844
-148873293439.5547
-154787773830.3164
-160698087012.84766
-166607402368.16797
-172517667966.72266
-178424231912.47266
-184327873602.16797
-190226525039.27734
-196120014017.95312
-202011913127.32422
-207888078465.02734
-213776258370.4375
-219400428356.76172
-222747136611.4336
-227848876048.0703
-1466912289.515625
-7945247986.296875
-14951825645.222656
-21090034200.898438
-27061272956.515625
-33004643132.41797
-38966738721.984375
-44913705294.25
-50861889056.609375
-56799112748.03125
-62747516406.896484
-68690991887.83203
-74638232351.71289
-80595671132.07227
-86540382875.99414
-92490924274.23242
-98430137557.43164
-104381335262.06396
-110324140220.87354
-116264668534.82373
-122200865745.97656
-128131216503.69922
-134059692521.80371
-139987612253.24414
-145910365276.4453
-151826423171.82227
-157739215096.8086
-163647470313.2754
-169557891813.51562
-175465613493.7539
-181370800362.21875
-187271309102.375
-193166941181.14453
-199058373511.13672
-204945671776.11328
-210806228901.97656
-216636930150.9297
-221748982905.69922
-222285636438.71484
-238555032883.1797
-110002927773.33594
79557.484375
110003083250.46094
-183619019071.8672
-52884123722.75
52884274836.671875
183619202716.3125
227849032997.09375
222747273021.0
219400564764.30078
213776405686.07422
207888228014.03906
202012060796.22266
196120151534.17188
190226661710.4414
184328023454.16797
178424380645.05078
172517806679.28125
166607551724.125
160698225609.83398
154787912709.81836
148873433004.81445
142953995209.54883
137027606653.42188
131098587382.56543
125169084547.53125
119236907755.48071
113296833110.37427
107356711283.24805
101406873739.66992
95461594646.94922
89518138030.37305
83566925928.6211
77619531209.7793
71661771497.22852
65719951363.541016
59771698377.97266
53829674064.14844
47890708315.55469
41936435492.76953
35986594791.61328
30027959840.714844
24086390256.23828
18142413419.703125
11519280591.046875
3215724534.5078125
238555216358.66406
222285766501.21094
221749127022.40625
216637077124.75
210806375622.97266
204945820177.03906
199058521060.1172
193167087628.1328
187271455398.8711
181370951484.72656
175465760642.35547
169558040336.21484
163647601172.89258
157739363113.89844
151826570278.7832
145910515997.61914
139987741919.10547
134059823224.98438
128131339516.6875
122200992837.32715
116264719349.43799
110324168869.61328
104381383744.57666
98430264306.13086
92490963678.57422
86540386016.05078
80595693518.2832
74638272426.86914
68691024993.32617
62747545644.06445
56799137372.453125
50861904882.36328
44913721758.35156
38966751092.67578
33004651133.027344
27061279289.23047
21090038148.09375
14951827762.929688
7945248485.203125
1466912459.1015625
315198264.59375
29.9296875
-315198378.6875
-1407930915.3125
7786103312.734375
-7786103322.671875
1407930985.640625
-5580188828.7109375
65.03125
5580188988.6484375
-6271453720.847656
473.12890625
6271454556.394531
-9053490803.867188
1247.58203125
9053493513.839844
-11988171629.875
2206.34375
11988176895.128906
-14988647140.839844
3469.88671875
14988654458.523438
-17981853927.617188
4894.6015625
17981863316.929688
-20978688527.777344
6731.74609375
20978703002.960938
-23968156110.55078
8621.390625
23968173480.32422
-26961842000.820312
10813.1875
26961864005.492188
-29951151420.69922
13147.83203125
29951177049.910156
-32939542049.220703
15776.90625
32939574488.728516
-35929917587.83008
19168.33984375
35929954707.98242
-38920338512.96875
24538.005859375
38920380524.21289
-41914843522.48047
32848.765625
41914896208.98242
-44902910070.04492
43175.69921875
44902971427.69043
-47892201685.572266
16234.2578125
47892248405.46875
-50881695796.305664
18715.6279296875
50881746527.359375
-53870465790.39209
51100.2138671875
53870542851.563965
-56857770523.958496
44080.366943359375
56857846509.32495
-59841435260.75537
53595.919677734375
59841535658.24634
-62826049109.00049
66060.580078125
62826177234.03662
-65808049217.22266
64837.05859375
65808176642.89844
-68789360727.31836
66308.0400390625
68789491687.875
-71768769402.41406
67739.38671875
71768904424.46484
-74746170272.79688
68725.34375
74746308706.75586
-77722270357.94727
70253.861328125
77722409828.47656
-80697502016.0039
70633.205078125
80697640779.36719
-83672333721.24219
71479.3125
83672479538.77734
-86646650204.8125
71672.453125
86646792786.57812
-89621477009.40234
72230.875
89621622530.8125
-92595353185.4961
72861.28515625
92595502088.95312
-95569367896.46484
72559.4765625
95569508272.82812
-98542893740.71484
72789.57421875
98543036474.67578
-101516610114.14062
73145.0703125
101516757729.88672
-104488585719.16406
73160.59765625
104488734010.69531
-107459679938.32422
73712.390625
107459827704.76172
-110578946001.53906
75223.99609375
110579085984.01562
-114458973421.6875
80652.26171875
114459113088.78906
-122975946026.08594
79575.1328125
122976136315.82812
-4078033891.1640625
-2103115029.1171875
-3804918371.984375
-14.8515625
3804918615.171875
2103115068.9921875
4078034259.359375
-8917346683.710938
-5186612421.390625
-3821575645.8984375
269.65625
3821576797.96875
5186613165.3671875
8917347956.042969
-13447903815.894531
-7759256675.2890625
-4573210532.4609375
867.609375
4573213079.3359375
7759258436.7578125
13447906875.019531
-17997615213.046875
-10516605482.46875
-6010417897.203125
1789.4765625
6010422750.65625
10516608476.890625
17997619192.960938
-22477875338.472656
-13495962616.808594
-7495355816.1796875
2909.5390625
7495363000.175781
13495968198.199219
22477881293.359375
-26977278846.421875
-16485322142.042969
-8989857129.046875
4201.0703125
8989867340.585938
16485330171.730469
26977287865.79297
-31465447817.765625
-19480530455.609375
-10489432905.441406
5871.58984375
10489446142.835938
19480542752.742188
31465461034.59375
-35954771484.19141
-22473108728.777344
-11984075079.648438
7642.07421875
11984091946.445312
22473124028.98047
35954789928.37891
-40439560241.09766
-25465219979.285156
-13478346208.933594
9747.91796875
13478367632.257812
25465240457.472656
40439582700.33203
-44920205369.08594
-28457354627.910156
-14976151661.210938
12019.66796875
14976178288.023438
28457378083.601562
44920229611.00781
-49405800509.78906
-31445883314.253906
-16468012252.583984
14471.859375
16468043972.259766
31445912002.84375
49405831153.384766
-53886738174.44531
-34434352581.927734
-17963430702.958984
17419.83203125
17963468500.41797
34434386385.82422
53886773008.12305
-58375452682.771484
-37424839847.0918
-19458309009.179688
21751.669921875
19458357063.472656
37424877568.26367
58375489508.572266
-62861343471.58008
-40417812412.71875
-20954493762.753906
28154.501953125
20954556205.845703
40417857269.16406
62861378568.96289
-67345776430.71973
-43408926692.265625
-22449318791.847656
36386.255859375
22449400655.655273
43408979915.92969
67345805783.98535
-71828264199.41602
-46397384480.79297
-23942979651.526367
35213.587890625
23943018327.14258
46397437227.19922
71828333255.57227
-76310477648.12402
-49386144188.552734
-25437709244.48047
28775.880859375
25437754269.51172
49386193694.72656
76310550837.58398
-80794114281.75537
-52376079635.30908
-26931892948.75879
39997.7177734375
26931990287.072754
52376140437.487305
80794157522.44482
-85273180659.7456
-55364236786.681885
-28424259565.059814
47731.1240234375
28424352565.95752
55364312789.14673
85273240917.8003
-89749853082.26709
-58348757246.1438
-29916730688.166992
40075.13018798828
29916836192.522217
58348826863.66919
89749947183.05371
-94223946068.42236
-61333030266.26807
-31408434943.444336
68142.3583984375
31408558031.29785
61333161438.86572
94224065779.68164
-98695501770.5625
-64316650209.930176
-32899126192.2959
63445.869140625
32899256114.26758
64316779366.34375
98695628734.92578
-103166793003.20508
-67298529195.583984
-34389427112.802734
65818.7685546875
34389561349.99609
67298660297.92383
103166923460.1748
-107635302299.88477
-70278821985.3877
-35878495493.17383
66985.9609375
35878630634.1543
70278952347.75195
107635442030.92383
-112100145166.69727
-73257035098.1289
-37367634688.05664
68068.9375
37367771922.73242
73257172934.69531
112100284854.41406
-116562816468.91602
-76233534221.42773
-38855083608.28125
68973.755859375
38855223033.458984
76233671259.66016
116562955473.36523
-121023438540.22461
-79209166343.10156
-40342389327.42383
70168.166015625
40342530671.25586
79209305722.0293
121023581911.2461
-125483909650.75977
-82184130381.77734
-41829796066.10547
71009.63671875
41829939283.83984
82184273345.875
125484048497.53125
-129944909015.8164
-85158572167.82812
-43316342197.74219
71704.29296875
43316485527.81641
85158720343.28125
129945052370.35156
-134405494316.72656
-88133413809.48828
-44803428792.41406
71812.4921875
44803574198.640625
88133561488.00781
134405637472.88281
-138865356850.58984
-91107615387.4375
-46290102282.72656
71818.92578125
46290245614.07422
91107758834.9375
138865495496.34375
-143324297199.26562
-94081517652.76172
-47776535868.078125
72711.16796875
47776683551.67578
94081660759.57422
143324444782.47266
-147783434125.53125
-97055382606.89844
-49262743030.68359
72348.546875
49262890524.86328
97055525542.66797
147783581611.41406
-152240268174.98047
-100028540556.32422
-50749637250.90625
73009.53515625
50749784777.57422
100028683502.47266
152240415234.9414
-156705092370.42578
-103002603182.99219
-52230970833.34766
73152.4921875
52231118274.60156
103002750678.8164
156705230822.79688
-161117532259.48828
-105985533846.82422
-53787513386.13672
73252.50390625
53787660821.11719
105985676740.94531
161117679944.30078
-165587052864.9336
-108992156417.73828
-55252770679.8125
74890.51953125
55252920212.60156
108992303938.3125
165587200299.5625
-170695942743.5586
-112646625086.29688
-58001268946.5
79569.3203125
58001424823.82031
112646759005.11719
170696090453.41406
-176632177963.90625
-116134722620.60938
-60653830881.109375
78224.5234375
60654001693.0625
116134887040.3125
176632342779.28906
-113060992555.75781
80106.421875
113061161297.625
SCALARS stress22 float
LOOKUP_TABLE default
2083655034.3515625
-96319574702.10938
96319658755.0625
-2083655183.765625
410094595.2578125
93415928.0703125
-70676853.875
1745274.0390625
-11522101.703125
-7327983.15625
-3085839.234375
-9834952.8515625
-13288678.578125
-9306528.26171875
-10688655.31640625
-14986688.45703125
-10628384.03515625
-8568058.3203125
-10792393.197265625
-14800615.152832031
-18609795.630371094
-14707419.241210938
-19198307.029296875
-16620964.7734375
-16682723.78125
-21928992.4296875
-20756416.05859375
-24114337.015625
-24792584.49609375
-28160778.2734375
-31148523.5546875
-31552217.4921875
-37296085.609375
-42429024.4140625
-48736752.59375
-57729701.515625
-66865248.671875
-90671214.796875
-87059700.78125
-260311855.5625
208146032.40625
-1461995754.3125
4824408193.09375
-452268527.796875
3656118.2890625
-17223416.484375
-23026606.8125
-8596917.8984375
-11222144.765625
-10950468.7734375
-11146436.9921875
-14493690.37109375
-13422171.84765625
-15816716.39453125
-15663472.046875
-15057733.2421875
-15419552.20703125
-13270225.8671875
-17228909.97265625
-17831052.517089844
-20398549.555664062
-19274960.03515625
-20355535.322265625
-20561933.50390625
-22757169.578125
-23943313.23046875
-25393113.109375
-27582409.31640625
-29123348.953125
-32039762.78125
-33652515.5
-37409587.09375
-42084243.0546875
-48027359.625
-55524983.5234375
-64107929.3046875
-80295567.8359375
-88637598.875
-170166415.140625
-108351.875
-1261721283.140625
4972636656.65625
-24222833708.5
-43027937986.953125
33976.609375
43028003525.5625
-70486291381.6875
-21756657423.359375
21756722347.765625
70486363934.40625
-4824410557.84375
1461995331.890625
-208148593.75
260312658.4375
87059690.375
90671280.3359375
66865255.6640625
57729696.21875
48736727.890625
42428982.8828125
37296034.4453125
31552152.765625
31148436.2890625
28160680.9140625
24792480.953125
24114205.69921875
20756448.0859375
21928099.0703125
16687150.525390625
16621128.46484375
19189289.408203125
14701760.253417969
18619293.44921875
14810361.979003906
10785250.109375
8567801.158203125
10627914.3828125
14986750.19921875
10688375.8125
9306207.546875
13288292.00390625
9834550.8984375
3085484.40625
7327610.59375
11521784.234375
-1745519.8515625
70676591.0703125
-93416225.625
-410094833.9765625
24222858109.5
-4972644445.859375
1261721645.25
108234.375
170166647.921875
88637626.96875
80295596.3828125
64107923.9375
55524965.21875
48027318.8359375
42084187.4296875
37409526.296875
33652427.0390625
32039655.3125
29123236.26953125
27582275.4140625
25392985.71484375
23943327.4296875
22755698.916015625
20572481.564453125
20344364.724609375
19267019.553710938
20412291.934570312
17733313.91357422
17242273.81640625
13262453.7890625
15420113.0234375
15057516.83984375
15663247.76953125
15816358.9609375
13421785.00390625
14493233.59765625
11146021.9609375
10950093.3125
11221719.3359375
8596647.265625
23026339.4609375
17223084.8828125
-3656397.7890625
452268233.671875
7813676265.3046875
-10.3125
-7813676964.0859375
216097442.765625
20553239949.023438
-20553239978.28125
-216097563.828125
-907613364.0703125
-166.59375
907613059.5859375
518551785.8359375
-195.7578125
-518552090.5703125
80290761.421875
-194.9296875
-80291108.6796875
22613916.6171875
-190.65625
-22614227.484375
1411126.0078125
-226.140625
-1411498.0546875
-4855331.4921875
-261.9140625
4854909.015625
-1406636.3984375
-273.296875
1406192.359375
-7037057.4765625
-297.8515625
7036580.625
-759008.1796875
-329.49609375
758504.703125
3333654.9765625
-475.0859375
-3334276.2890625
2553818.34765625
-973.75
-2554925.6015625
-59892.3046875
-2143.88671875
57563.05078125
-4021501.30078125
-3624.875
4017466.701171875
1136105.43359375
-2374.75
-1139587.0390625
-3129826.736328125
17031.6171875
3151961.2138671875
-1631171.7431640625
85511.05078125
1723298.810546875
750634.96875
85424.0478515625
-658544.533203125
-1171575.544921875
16098.0869140625
1192769.5102539062
-2480510.1748046875
-6960.912109375
2469050.0966796875
-3949730.083984375
-4485.775390625
3944496.896484375
-1197709.5078125
449.998046875
1200187.16796875
-491685.73046875
-884.71484375
490400.1953125
838229.62890625
-528.41015625
-838813.83984375
324407.81640625
-331.47265625
-324807.7421875
-590054.3828125
-221.80078125
589775.421875
-1860366.9375
-172.125
1860137.7421875
-1364783.0546875
-146.171875
1364587.0703125
690100.5078125
-123.796875
-690266.3203125
32841.109375
-105.109375
-32981.2890625
327328.203125
-89.5234375
-327449.9140625
683303.6875
-72.6640625
-683401.625
1230255.78125
-61.0234375
-1230335.75
1277641.46875
-67.015625
-1277720.3828125
1405190.78125
-113.71875
-1405321.015625
4297199.84375
-289.59375
-4297428.109375
50573234.921875
-438.015625
-50573714.734375
154527734.125
-2423.984375
-154526314.0
1372976898.03125
18.125
-1372976496.5
-8338592265.984375
16065.875
8338611140.203125
170984349.7734375
-1370237619.8359375
-224783856.234375
5.0234375
224783615.359375
1370237413.796875
-170984527.765625
99746181.3828125
193396218.5390625
107758129.3203125
-200.3046875
-107758442.9296875
-193396516.09375
-99746376.5625
56158894.78125
239555312.6484375
72793886.5078125
-180.8046875
-72794224.6796875
-239555637.7109375
-56159116.6953125
3017626.9765625
32103723.5546875
11998468.984375
-173.640625
-11998799.6796875
-32104043.59375
-3017827.5703125
2326673.9375
5185103.3828125
-1135021.7109375
-189.6484375
1134625.0859375
-5185427.9140625
-2326917.7578125
-4994680.7578125
-2428823.4609375
-595893.390625
-232.9921875
595430.8046875
2428399.0625
4994399.0390625
3021752.234375
-4045111.4140625
-2905640.9140625
-256.7890625
2905145.84375
4044674.875
-3022042.96875
-3647342.765625
-4594012.3984375
-5612435.15625
-277.6953125
5611885.265625
4593536.046875
3647021.5625
-5790991.39453125
-4369869.78515625
4286360.6171875
-307.328125
-4286975.07421875
4369353.15625
5790655.81640625
4521740.7109375
807278.56640625
-2846964.06640625
-376.07421875
2846123.54296875
-807835.515625
-4522126.13671875
-991456.91796875
1303318.0703125
2672476.76171875
-653.48046875
-2674092.390625
-1304134.94921875
990834.07421875
-2843525.9453125
889154.3984375
763331.59765625
-1420.84375
-766632.9609375
-890792.14453125
2842376.66015625
-1941460.697265625
-1980332.6328125
-3613527.015625
-2864.49609375
3607826.3515625
1977187.92578125
1939494.0078125
1832582.1953125
-2392415.515625
1421433.009765625
-3942.408203125
-1423575.25
2387624.87890625
-1833678.5859375
-439277.91796875
-1457767.0625
-3248377.970703125
3587.95703125
3277498.94921875
1460962.001953125
449633.3173828125
-3672852.603515625
-2888452.6279296875
61781.4833984375
36523.619140625
103012.220703125
2938162.6513671875
3692257.3349609375
-2351717.3354492188
245780.9541015625
450921.82958984375
165348.482421875
-286315.30078125
-137024.51318359375
2371087.7211914062
-871229.4487304688
-397884.59716796875
-1670324.83984375
36100.46142578125
1697580.5234375
447170.80615234375
880953.7724609375
-4379848.21484375
-1890035.234375
571429.5341796875
1876.7060546875
-579624.943359375
1891363.6337890625
4374768.70703125
-1919625.65234375
-2689222.419921875
-3377469.955078125
-10141.158203125
3370421.640625
2673054.3359375
1917161.123046875
-310677.53125
-2759008.333984375
-1096760.53125
1603.564453125
1094812.72265625
2764919.251953125
310540.119140625
-1882207.765625
-960188.708984375
58556.078125
-1044.91796875
-59631.82421875
958592.5625
1881784.52734375
-644309.0
-27999.984375
914772.3125
-666.5390625
-915783.94140625
27238.3359375
643931.29296875
-1302752.75
-12484.45703125
1191732.36328125
-474.01953125
-1192375.87890625
11922.5078125
1302500.546875
-664723.21875
-396003.453125
-1304805.93359375
-306.09375
1304338.48828125
395627.80859375
664529.39453125
-2453990.3515625
-1099526.89453125
-1154399.25
-232.109375
1154020.9140625
1099230.828125
2453827.84375
-2136658.6875
-1215769.515625
-825409.3203125
-192.4140625
825085.7734375
1215516.3359375
2136517.484375
417749.6328125
-100642.796875
-356501.1796875
-165.875
356225.7265625
100425.1484375
-417868.3046875
-922722.5625
259587.3359375
19782.640625
-140.203125
-20015.8984375
-259768.84375
922621.7265625
-856461.8671875
161016.9296875
-127521.5625
-119.53125
127322.890625
-161174.734375
856374.5
-407700.3203125
421297.6640625
-402172.5703125
-99.84375
402010.375
-421429.84375
407629.875
-497087.875
837831.28125
264320.25
-80.3828125
-264454.203125
-837936.1015625
497032.0
-338106.796875
1007615.6171875
21862.84375
-72.0
-21997.046875
-1007705.1015625
338054.265625
-817637.734375
1596631.3671875
-206465.5703125
-87.4375
206264.078125
-1596741.4375
817574.265625
1620102.28125
-129484.71875
4504835.421875
-188.6953125
-4505233.765625
129341.7578125
-1620233.5625
7962428.53125
23649621.5625
10195879.4375
-301.9375
-10196693.09375
-23650174.515625
-7962463.59375
173610545.234375
27562035.859375
212688192.953125
-1319.203125
-212688947.015625
-27561063.4375
-173610047.5625
11050115.75
843025786.40625
23638052.125
-1324.328125
-23635946.8125
-843027446.640625
-11049013.90625
-3224794617.703125
-1469316481.25
-2325910482.125
5639.0625
2325933466.328125
1469325122.4375
3224802564.703125
-12936966842.46875
24649.53125
12936996527.734375
SCALARS stress12 float
LOOKUP_TABLE default
-751931677.6842041
44171164543.05414
44171222500.48688
-751931838.3273926
737674114.7503662
427216266.4633789
403002728.157959
347109541.6405029
347651974.4213867
345120145.5406494
346515539.3985596
344923602.2702637
345420722.2919922
345642882.25561523
343111962.5515137
344257955.7108154
344096704.7628174
344137056.12194824
343188868.0505371
344032611.9136963
345106655.55877686
345512896.32940674
344818725.9926758