# vtk DataFile Version 2.0
Generated Volume Mesh
ASCII
DATASET UNSTRUCTURED_GRID
POINTS 205 float
0.0 -0.01 0.0
0.2 -0.01 0.0
0.2 0.01 0.0
0.0 0.01 0.0
0.004999999999990963 -0.01 0.0
0.009999999999980603 -0.01 0.0
0.01499999999997201 -0.01 0.0
0.01999999999996497 -0.01 0.0
0.02499999999995712 -0.01 0.0
0.02999999999994344 -0.01 0.0
0.03499999999992909 -0.01 0.0
0.03999999999991203 -0.01 0.0
0.04499999999989768 -0.01 0.0
0.04999999999988333 -0.01 0.0
0.05499999999986898 -0.01 0.0
0.05999999999985461 -0.01 0.0
0.06499999999984028 -0.01 0.0
0.06999999999982592 -0.01 0.0
0.07499999999980886 -0.01 0.0
0.0799999999997918 -0.01 0.0
0.08499999999977745 -0.01 0.0
0.0899999999997631 -0.01 0.0
0.09499999999974874 -0.01 0.0
0.0999999999997371 -0.01 0.0
0.1049999999997488 -0.01 0.0
0.1099999999997604 -0.01 0.0
0.1149999999997748 -0.01 0.0
0.1199999999997886 -0.01 0.0
0.1249999999998008 -0.01 0.0
0.1299999999998173 -0.01 0.0
0.1349999999998279 -0.01 0.0
0.1399999999998396 -0.01 0.0
0.1449999999998577 -0.01 0.0
0.1499999999998672 -0.01 0.0
0.1549999999998767 -0.01 0.0
0.1599999999998948 -0.01 0.0
0.1649999999999065 -0.01 0.0
0.1699999999999171 -0.01 0.0
0.1749999999999363 -0.01 0.0
0.1799999999999458 -0.01 0.0
0.1849999999999585 -0.01 0.0
0.1899999999999756 -0.01 0.0
0.1949999999999851 -0.01 0.0
0.2 -0.005000000000010828 0.0
0.2 -2.538941279439655e-14 0.0
0.2 0.004999999999987136 0.0
0.1950000000000139 0.01 0.0
0.1900000000000277 0.01 0.0
0.1850000000000415 0.01 0.0
0.1800000000000553 0.01 0.0
0.1750000000000692 0.01 0.0
0.170000000000083 0.01 0.0
0.1650000000000968 0.01 0.0
0.1600000000001107 0.01 0.0
0.1550000000001245 0.01 0.0
0.1500000000001384 0.01 0.0
0.1450000000001522 0.01 0.0
0.140000000000166 0.01 0.0
0.1350000000001799 0.01 0.0
0.1300000000001937 0.01 0.0
0.1250000000002075 0.01 0.0
0.1200000000002214 0.01 0.0
0.1150000000002352 0.01 0.0
0.110000000000249 0.01 0.0
0.1050000000002629 0.01 0.0
0.100000000000274 0.01 0.0
0.09500000000026176 0.01 0.0
0.09000000000024955 0.01 0.0
0.08500000000023465 0.01 0.0
0.08000000000022028 0.01 0.0
0.07500000000020751 0.01 0.0
0.07000000000019044 0.01 0.0
0.0650000000001793 0.01 0.0
0.06000000000016711 0.01 0.0
0.0550000000001484 0.01 0.0
0.05000000000013835 0.01 0.0
0.0450000000001283 0.01 0.0
0.04000000000010959 0.01 0.0
0.0350000000000974 0.01 0.0
0.03000000000008626 0.01 0.0
0.02500000000006647 0.01 0.0
0.02000000000005642 0.01 0.0
0.01500000000004315 0.01 0.0
0.01000000000002552 0.01 0.0
0.005000000000015492 0.01 0.0
0.0 0.005000000000010828 0.0
0.0 2.538941279439655e-14 0.0
0.0 -0.004999999999987136 0.0
0.004999999999997094 -0.004999999999987727 0.0
0.005000000000003228 2.411959520998152e-14 0.0
0.005000000000009359 0.005000000000010233 0.0
0.009999999999991828 -0.00499999999998832 0.0
0.01000000000000306 2.285064498730449e-14 0.0
0.01000000000001429 0.005000000000009642 0.0
0.01499999999998979 -0.00499999999998891 0.0
0.01500000000000757 2.158082740288947e-14 0.0
0.01500000000002536 0.005000000000009051 0.0
0.01999999999998783 -0.004999999999989502 0.0
0.02000000000001069 2.031187718021243e-14 0.0
0.02000000000003356 0.005000000000008457 0.0
0.02499999999998446 -0.004999999999990098 0.0
0.02500000000001179 1.904205959579741e-14 0.0
0.02500000000003914 0.005000000000007864 0.0
0.02999999999997915 -0.004999999999990686 0.0
0.03000000000001485 1.777224201138239e-14 0.0
0.03000000000005056 0.005000000000007274 0.0
0.03499999999997118 -0.00499999999999128 0.0
0.03500000000001325 1.650329178870535e-14 0.0
0.03500000000005533 0.005000000000006681 0.0
0.03999999999996142 -0.004999999999991873 0.0
0.04000000000001081 1.523347420429033e-14 0.0
0.04000000000006019 0.005000000000006089 0.0
0.04499999999995533 -0.004999999999992464 0.0
0.04500000000001299 1.396495766248229e-14 0.0
0.04500000000007065 0.005000000000005497 0.0
0.04999999999994709 -0.004999999999993056 0.0
0.05000000000001084 1.269514007806727e-14 0.0
0.05000000000007461 0.005000000000004904 0.0
0.05499999999993883 -0.004999999999993651 0.0
0.05500000000000869 1.142488881278325e-14 0.0
0.05500000000007854 0.005000000000004311 0.0
0.05999999999993273 -0.004999999999994243 0.0
0.06000000000001086 1.015593859010622e-14 0.0
0.06000000000008898 0.005000000000003719 0.0
0.06499999999992503 -0.004999999999994832 0.0
0.06500000000000979 8.886121005691193e-15 0.0
0.06500000000009454 0.005000000000003126 0.0
0.06999999999991705 -0.004999999999995426 0.0
0.07000000000000817 7.617604463883153e-15 0.0
0.07000000000009932 0.005000000000002535 0.0
0.07499999999990853 -0.00499999999999602 0.0
0.07500000000000817 6.347786879468131e-15 0.0
0.07500000000010784 0.005000000000001941 0.0
0.0799999999998989 -0.004999999999996613 0.0
0.08000000000000605 5.077535614184114e-15 0.0
0.08000000000011315 0.00500000000000135 0.0
0.08499999999989175 -0.004999999999997203 0.0
0.08500000000000604 3.809019072376073e-15 0.0
0.08500000000012034 0.005000000000000759 0.0
0.08999999999988471 -0.004999999999997795 0.0
0.09000000000000632 2.538767807092057e-15 0.0
0.09000000000012796 0.005000000000000165 0.0
0.09499999999987702 -0.004999999999998389 0.0
0.09500000000000525 1.269817584415023e-15 0.0
0.0950000000001335 0.004999999999999572 0.0
0.0999999999998713 -0.004999999999998979 0.0
0.1000000000000055 0.0 0.0
0.1000000000001398 0.00499999999999898 0.0
0.1049999999998773 -0.004999999999999573 0.0
0.1050000000000058 -1.269817584415023e-15 0.0
0.1050000000001343 0.004999999999998389 0.0
0.1099999999998826 -0.005000000000000167 0.0
0.1100000000000047 -2.538767807092057e-15 0.0
0.1100000000001269 0.004999999999997796 0.0
0.1149999999998898 -0.005000000000000759 0.0
0.115000000000005 -3.808585391507079e-15 0.0
0.1150000000001201 0.004999999999997204 0.0
0.1199999999998968 -0.005000000000001348 0.0
0.120000000000005 -5.077535614184114e-15 0.0
0.1200000000001132 0.004999999999996612 0.0
0.1249999999999025 -0.005000000000001942 0.0
0.1250000000000041 -6.347570039033633e-15 0.0
0.1250000000001058 0.004999999999996019 0.0
0.1299999999999114 -0.005000000000002535 0.0
0.1300000000000055 -7.617387623448655e-15 0.0
0.1300000000000996 0.004999999999995426 0.0
0.1349999999999159 -0.005000000000003124 0.0
0.1350000000000039 -8.886121005691193e-15 0.0
0.1350000000000919 0.004999999999994834 0.0
0.1399999999999212 -0.005000000000003718 0.0
0.1400000000000028 -1.015593859010622e-14 0.0
0.1400000000000844 0.004999999999994243 0.0
0.1449999999999313 -0.005000000000004313 0.0
0.145000000000005 -1.142488881278325e-14 0.0
0.1450000000000786 0.004999999999993649 0.0
0.149999999999935 -0.005000000000004905 0.0
0.1500000000000028 -1.269492323763277e-14 0.0
0.1500000000000706 0.004999999999993059 0.0
0.1549999999999386 -0.005000000000005495 0.0
0.1550000000000006 -1.39645239816133e-14 0.0
0.1550000000000625 0.004999999999992468 0.0
0.1599999999999488 -0.005000000000006088 0.0
0.1600000000000028 -1.523369104472483e-14 0.0
0.1600000000000567 0.004999999999991874 0.0
0.164999999999954 -0.005000000000006681 0.0
0.1650000000000017 -1.650350862913985e-14 0.0
0.1650000000000492 0.00499999999999128 0.0
0.1699999999999586 -0.005000000000007271 0.0
0.17 -1.777224201138239e-14 0.0
0.1700000000000416 0.00499999999999069 0.0
0.1749999999999695 -0.005000000000007865 0.0
0.1750000000000027 -1.904162591492841e-14 0.0
0.175000000000036 0.004999999999990097 0.0
0.1799999999999731 -0.005000000000008458 0.0
0.1800000000000005 -2.031176875999518e-14 0.0
0.180000000000028 0.004999999999989503 0.0
0.1849999999999793 -0.005000000000009051 0.0
0.1850000000000001 -2.158109845343259e-14 0.0
0.1850000000000208 0.004999999999988913 0.0
0.1899999999999887 -0.00500000000000964 0.0
0.1900000000000016 -2.285031972665274e-14 0.0
0.1900000000000147 0.00499999999998832 0.0
0.1949999999999923 -0.005000000000010234 0.0
0.1949999999999995 -2.411956810492721e-14 0.0
0.1950000000000067 0.004999999999987727 0.0
CELLS 160 800
4 0 4 88 87
4 87 88 89 86
4 86 89 90 85
4 85 90 84 3
4 4 5 91 88
4 88 91 92 89
4 89 92 93 90
4 90 93 83 84
4 5 6 94 91
4 91 94 95 92
4 92 95 96 93
4 93 96 82 83
4 6 7 97 94
4 94 97 98 95
4 95 98 99 96
4 96 99 81 82
4 7 8 100 97
4 97 100 101 98
4 98 101 102 99
4 99 102 80 81
4 8 9 103 100
4 100 103 104 101
4 101 104 105 102
4 102 105 79 80
4 9 10 106 103
4 103 106 107 104
4 104 107 108 105
4 105 108 78 79
4 10 11 109 106
4 106 109 110 107
4 107 110 111 108
4 108 111 77 78
4 11 12 112 109
4 109 112 113 110
4 110 113 114 111
4 111 114 76 77
4 12 13 115 112
4 112 115 116 113
4 113 116 117 114
4 114 117 75 76
4 13 14 118 115
4 115 118 119 116
4 116 119 120 117
4 117 120 74 75
4 14 15 121 118
4 118 121 122 119
4 119 122 123 120
4 120 123 73 74
4 15 16 124 121
4 121 124 125 122
4 122 125 126 123
4 123 126 72 73
4 16 17 127 124
4 124 127 128 125
4 125 128 129 126
4 126 129 71 72
4 17 18 130 127
4 127 130 131 128
4 128 131 132 129
4 129 132 70 71
4 18 19 133 130
4 130 133 134 131
4 131 134 135 132
4 132 135 69 70
4 19 20 136 133
4 133 136 137 134
4 134 137 138 135
4 135 138 68 69
4 20 21 139 136
4 136 139 140 137
4 137 140 141 138
4 138 141 67 68
4 21 22 142 139
4 139 142 143 140
4 140 143 144 141
4 141 144 66 67
4 22 23 145 142
4 142 145 146 143
4 143 146 147 144
4 144 147 65 66
4 23 24 148 145
4 145 148 149 146
4 146 149 150 147
4 147 150 64 65
4 24 25 151 148
4 148 151 152 149
4 149 152 153 150
4 150 153 63 64
4 25 26 154 151
4 151 154 155 152
4 152 155 156 153
4 153 156 62 63
4 26 27 157 154
4 154 157 158 155
4 155 158 159 156
4 156 159 61 62
4 27 28 160 157
4 157 160 161 158
4 158 161 162 159
4 159 162 60 61
4 28 29 163 160
4 160 163 164 161
4 161 164 165 162
4 162 165 59 60
4 29 30 166 163
4 163 166 167 164
4 164 167 168 165
4 165 168 58 59
4 30 31 169 166
4 166 169 170 167
4 167 170 171 168
4 168 171 57 58
4 31 32 172 169
4 169 172 173 170
4 170 173 174 171
4 171 174 56 57
4 32 33 175 172
4 172 175 176 173
4 173 176 177 174
4 174 177 55 56
4 33 34 178 175
4 175 178 179 176
4 176 179 180 177
4 177 180 54 55
4 34 35 181 178
4 178 181 182 179
4 179 182 183 180
4 180 183 53 54
4 35 36 184 181
4 181 184 185 182
4 182 185 186 183
4 183 186 52 53
4 36 37 187 184
4 184 187 188 185
4 185 188 189 186
4 186 189 51 52
4 37 38 190 187
4 187 190 191 188
4 188 191 192 189
4 189 192 50 51
4 38 39 193 190
4 190 193 194 191
4 191 194 195 192
4 192 195 49 50
4 39 40 196 193
4 193 196 197 194
4 194 197 198 195
4 195 198 48 49
4 40 41 199 196
4 196 199 200 197
4 197 200 201 198
4 198 201 47 48
4 41 42 202 199
4 199 202 203 200
4 200 203 204 201
4 201 204 46 47
4 42 1 43 202
4 202 43 44 203
4 203 44 45 204
4 204 45 2 46
CELL_TYPES 160
9
9
9
9
9
9
9
9
9
9
9
9
9
9
9
9
9
9
9
9
9
9
9
9
9
9
9
9
9
9
9
9
9
9
9
9
9
9
9
9
9
9
9
9
9
9
9
9
9
9
9
9
9
9
9
9
9
9
9
9
9
9
9
9
9
9
9
9
9
9
9
9
9
9
9
9
9
9
9
9
9
9
9
9
9
9
9
9
9
9
9
9
9
9
9
9
9
9
9
9
9
9
9
9
9
9
9
9
9
9
9
9
9
9
9
9
9
9
9
9
9
9
9
9
9
9
9
9
9
9
9
9
9
9
9
9
9
9
9
9
9
9
9
9
9
9
9
9
9
9
9
9
9
9
9
9
9
9
9
9
POINT_DATA 205
SCALARS stress11 float
LOOKUP_TABLE default
-6739386942.5625
-260068560136.59375
260068560134.6875
6739386938.3125
-6488411270.5
-12323215974.6875
-19244880125.8125
-25503520710.0625
-31723312598.125
-37949391669.5
-44195472676.5625
-50457584865.5
-56733998345.3125
-63023111213.125
-69323679963.75
-75634605483.625
-81954946547.5625
-88283797639.0
-94620378435.09375
-100963903837.0
-107313638105.5625
-113668843124.5
-120028858249.3125
-126392957034.5625
-132760448846.0
-139130621118.5625
-145502746173.875
-151876054290.53125
-158249705789.625
-164622850158.09375
-170994442110.5625
-177363330503.34375
-183728165412.28125
-190087167965.71875
-196438121014.9375
-202777972377.375
-209101974539.9375
-215405016410.625
-221664077632.65625
-227842300343.8125
-233192748205.5625
-237181426593.1875
-238224587818.90625
-125756508083.40625
-0.8125
125756508082.40625
238224587818.46875
237181426592.8125
233192748205.25
227842300343.71875
221664077632.625
215405016410.75
209101974540.0625
202777972377.46875
196438121015.25
190087167965.9375
183728165412.5
177363330503.59375
170994442110.6875
164622850158.15625
158249705789.6875
151876054290.34375
145502746173.4375
139130621117.75
132760448844.625
126392957032.3125
120028858245.53125
113668843118.34375
107313638094.03125
100963903807.59375
94620378305.75
88283796746.8125
81954936555.375
75634604828.5625
69323679841.1875
63023111175.8125
56733998328.1875
50457584855.625
44195472670.0
37949391664.875
31723312595.0
25503520707.375
19244880123.8125
12323215973.0
6488411268.5
5013838331.25
-0.125
-5013838332.125
-3239055600.625
0.0
3239055600.5625
-6519780238.375
0.0
6519780238.25
-8997307203.625
0.125
8997307203.625
-11835157048.375
0.0
11835157047.9375
-14776067810.625
0.0
14776067810.8125
-17737479617.0
0.0
17737479617.0625
-20705576413.875
0.0625
20705576413.5625
-23679093741.75
-0.3125
23679093741.0625
-26657706985.5
-2.0
26657706983.375
-29641119573.25
-14.625
29641119564.125
-32629047238.5625
-117.875
32629047197.0625
-35621205414.5
-983.5
35621205309.5625
-38617345661.1875
-2360.71875
38617339648.8125
-41617194125.9375
-417.65625
41617193346.46875
-44620513439.0
-56.0625
44620513320.1875
-47627056525.21875
-7.84375
47627056507.25
-50636588282.125
-1.125
50636588279.3125
-53648871479.09375
-0.1875
53648871478.75
-56663692034.90625
-0.0625
56663692035.03125
-59680824825.21875
-0.0625
59680824825.53125
-62700047510.8125
0.0
62700047511.1875
-65721167987.75
0.03125
65721167988.15625
-68743968148.96875
-0.09375
68743968149.25
-71768249512.71875
-0.0625
71768249513.0625
-74793815248.3125
-0.0625
74793815248.59375
-77820477130.71875
-0.0625
77820477130.90625
-80848023724.9375
-0.15625
80848023725.1875
-83876267652.4375
-0.0625
83876267652.625
-86905019174.5625
-0.125
86905019174.71875
-89934043185.6875
-0.0625
89934043185.78125
-92963108364.875
-0.1875
92963108365.03125
-95991931659.5
-0.1875
95991931659.59375
-99020079710.6875
-0.21875
99020079710.71875
-102046936588.34375
-0.25
102046936588.15625
-105077729316.3125
-0.1875
105077729316.15625
-108167842271.90625
-0.28125
108167842271.84375
-111656696234.03125
-0.3125
111656696233.75
-115755389862.3125
-0.34375
115755389862.0625
-110915950065.78125
-0.3125
110915950065.1875
SCALARS stress22 float
LOOKUP_TABLE default
-5339488740.25
-107129921324.875
107129921324.0
5339488743.5
-1902286951.75
-1929511317.375
-3525935248.25
-4640042693.125
-5727097819.0
-6808085206.75
-7896052598.375
-8988457888.375
-10084672979.125
-11184029301.875
-12286079191.25
-13390452092.0
-14496848627.5
-15604998968.0
-16714673922.0
-17825657316.375
-18937746827.625
-20050748308.4375
-21164478627.5
-22278746508.8125
-23393359270.5625
-24508124674.25
-25622832458.0
-26737254771.875
-27851140413.8125
-28964212655.25
-30076132883.6875
-31186513475.4375
-32294865358.625
-33400548503.8125
-34502715880.125
-35600235744.875
-36691105293.25
-37774368602.1875
-38835010085.5625
-39865234422.875
-40312738803.25
-40554575497.0625
-41480880263.125
-51607073473.5
-0.25
51607073472.75
41480880263.25
40554575497.0
40312738803.1875
39865234422.9375
38835010085.1875
37774368602.25
36691105293.125
35600235744.4375
34502715879.3125
33400548502.625
32294865356.5
31186513473.125
30076132902.625
28964211998.0
27851140396.8125
26737254794.6875
25622832540.0
24508125091.5625
23393359270.0
22278746317.25
21164478987.875
20050748478.75
18937746889.625
17825657287.75
16714673888.25
15604998234.75
14496845432.0
13390451353.0
12286078882.375
11184029295.0
10084672850.75
8988457936.25
7896052604.625
6808085241.25
5727097670.375
4640042711.375
3525935252.5
1929511284.625
1902286954.75
8097544008.25
0.0
-8097544012.5
-172435296.375
-1.75
172435276.0
-250310584.0
-0.625
250310592.875
-309823458.625
0.25
309823353.5
-379790371.5
-45.5
379790343.625
-464677580.75
6.75
464677608.5
-553229665.5
4.125
553229500.75
-642639343.625
-83.25
642639377.25
-732392152.25
18.75
732392063.375
-822410741.25
-174.75
822410687.25
-912655482.0
-14.125
912655316.125
-1003096975.75
-259.75
1003096946.625
-1093710604.75
-2281.75
1093710602.875
-1184479147.5
-4153.75
1184478095.875
-1275381670.75
-842.75
1275381468.625
-1366405563.75
-48.1875
1366405179.625
-1457534265.8125
-152.25
1457534231.75
-1548754861.875
-2.625
1548754560.125
-1640051969.4375
-151.8125
1640051855.375
-1731415415.125
-171.9375
1731414962.8125
-1822832008.0
-17.375
1822831940.0625
-1914287182.0625
54.75
1914286921.75
-2005768817.9375
-72.1875
2005768137.5
-2097263722.25
-330.5625
2097263798.75
-2188756293.6875
121.0
2188756297.125
-2280228180.6875
-329.75
2280228217.5
-2371667398.5
-19.0625
2371667436.0
-2463046324.875
-2.5
2463046319.1875
-2554340921.6875
-0.25
2554340922.25
-2645526741.125
0.0625
2645526741.625
-2736560081.25
0.25
2736560081.5625
-2827386956.375
0.4375
2827386956.5625
-2917940877.125
0.25
2917940877.3125
-3008107397.8125
0.3125
3008107398.125
-3097919483.75
0.375
3097919484.25
-3188882491.25
0.5
3188882491.875
-3292446858.375
0.25
3292446858.75
-3428311328.6875
0.4375
3428311329.1875
-3471122650.6875
0.6875
3471122651.25
-2873044369.1875
0.3125
2873044369.5
SCALARS stress12 float
LOOKUP_TABLE default
1842981377.125
45729955978.0
45729955978.9375
1842981369.0
2282268305.75
2552804674.75
2605422316.875
2574288017.875
2580171544.75
2584608043.0625
2589376097.8125
2593674340.8125
2597762537.4375
2601668560.625
2605424493.625
2609050869.5625
2612539054.375
2615923876.125
2619193067.0625
2622365230.8125
2625459572.25
2628501266.875
2631488108.46875
2634458514.9375
2637455047.3125
2640489451.5
2643623745.75
2646919793.6875
2650475076.53125
2654346776.25
2658744795.78125
2663829927.5625
2669851567.90625
2677293835.21875
2686758527.65625
2699201509.5
2716631589.21875
2741376128.90625
2783078879.34375
2819547900.96875
2969706810.75
3069688315.6875
13529705945.875
28469052631.5625
22398885434.0625
28469052631.5625
13529705946.6875
3069688316.25
2969706811.75
2819547902.875
2783078886.0625
2741376169.46875
2716632251.6875
2699201492.78125
2686758530.125
2677293836.875
2669851567.59375
2663829926.4375
2658744793.9375
2654346773.8125
2650475073.6875
2646919790.875
2643623742.5625
2640489448.15625
2637455044.375
2634458511.71875
2631488105.78125
2628501264.53125
2625459576.9375
2622365269.5
2619193202.75
2615925026.1875
2612549930.0
2609052295.5
2605424653.75
2601668580.9375
2597762537.25
2593674333.1875
2589376084.9375
2584608040.3125
2580171543.125
2574288015.9375
2605422312.75
2552804659.5
2282268259.125
3195291471.125
6888398997.125
3195291513.375
3513448617.125
5818421208.375
3513448440.875
3828430069.375
4860716877.625
3828430097.125
3825722353.0
5045001110.625
3825722356.0
3848363409.8125
5088526224.5
3848363410.0625
3855446197.375
5106423503.8125
3855446197.4375
3863027915.5625
5116017682.375
3863027915.0625
3869821193.125
5125122940.3125
3869821193.0625
3876343813.5625
5133729137.8125
3876343813.9375
3882523343.0
5141921648.25
3882523346.6875
3888385844.1875
5149686937.4375
3888385879.1875
3893936629.0625
5157036412.3125
3893936963.3125
3899189267.0625
5163985328.75
3899191566.0
3904126387.6875
5170519865.75
3904140496.0
3908782670.5
5176660299.4375
3908784718.1875
3913138285.3125
5182405091.375
3913138582.1875
3917206214.25
5187764493.8125
3917206213.5625
3921001325.75
5192755265.25
3921001338.0625
3924540880.21875
5197395140.84375
3924540878.71875
3927804961.6875
5201666494.6875
3927804960.84375
3930819659.0625
5205595806.46875
3930819656.96875
3933607325.40625
5209209580.46875
3933607323.21875
3936146399.15625
5212484925.03125
3936146396.90625
3938464281.4375
5215451475.8125
3938464279.53125
3940574987.09375
5218124382.28125
3940574985.28125
3942514363.28125
5220538570.8125
3942514361.21875
3944237710.0625
5222648631.28125
3944237708.4375
3945850450.84375
5224557602.34375
3945850449.125
3947328086.5
5226236111.28125
3947328084.78125
3948657617.34375
5227662712.28125
3948657615.4375
3949970122.09375
5228955450.78125
3949970120.5
3951264444.96875
5230093527.4375
3951264443.21875
3952589535.75
5231048389.4375
3952589540.40625
3954105979.28125
5232058336.8125
3954105941.1875
3956520437.0625
5232786265.4375
3956520438.28125
3959012921.25
5239200319.15625
3959012921.40625
3981996609.9375
5266966446.59375
3981996609.5625
4011330686.28125
5538936757.5
4011330685.90625
4604083346.5625
5790774660.5
4604083346.25
5115387566.5625
3918331839.875
5115387566.25
SCALARS strain11 float
LOOKUP_TABLE default
-0.004050441414335637
-0.19488172559708872
0.19488172559649897
0.004050441413067318
-0.00516256231836465
-0.010461617179114313
-0.016137726547263753
-0.021398587594624985
-0.026634646930226324
-0.0318787939882732
-0.03713841932359685
-0.04241090328544672
-0.04769491527934022
-0.05298926080012478
-0.058292977317465855
-0.06360521511771644
-0.06892522918523092
-0.07425230770102864
-0.07958582233600531
-0.08492514724172295
-0.09026968617757802
-0.09561885573751283
-0.10097210978602433
-0.10632888098665738
-0.111688595398034
-0.11705069890284747
-0.12241459821761502
-0.12777967707442883
-0.1331452898076968
-0.13851075239006683
-0.14387524496405746
-0.1492378860896313
-0.1545976240600826
-0.15995310672355245
-0.16530262429933096
-0.17064386570393353
-0.175973261003314
-0.18128656185167102
-0.18656865572811654
-0.19178904563561971
-0.19648342526823726
-0.2000188100688689
-0.2006068405032302
-0.09431166802873747
-5.258016244624741e-13
0.09431166802809088
0.2006068405030348
0.20001881006876943
0.1964834252682479
0.19178904563576182
0.18656865572828707
0.18128656185187353
0.17597326100358401
0.17064386570425327
0.16530262429970755
0.15995310672399654
0.1545976240605249
0.1492378860901411
0.14387524496454773
0.138510752390534
0.13314528980821017
0.12777967707488536
0.1224145982180147
0.11705069890310327
0.11168859539808373
0.10632888098639981
0.1009721097851326
0.09561885573551976
0.09026968617298792
0.08492514722654576
0.07958582225190547
0.07425230705357322
0.06892522134861956
0.06360521481121317
0.058292977268239454
0.052989260785111014
0.047694915272488814
0.04241090328158137
0.03713841932115258
0.03187879398656435
0.026634646929018402
0.02139858759371549
0.016137726546496367
0.010461617178485483
0.005162562317849506
0.0014045505715607476
-3.296918293926865e-12
-0.0014045505714541662
-0.002880290721552825
-2.042810365310288e-12
0.0028802907217944096
-0.005835378938154889
-9.237055564881302e-14
0.005835378938151337
-0.00806671807006154
7.105427357601002e-15
0.008066718070104173
-0.010621874571445034
1.7763568394002505e-14
0.010621874571462797
-0.013264997222144359
2.842170943040401e-14
0.013264997222165675
-0.015925346304005217
2.842170943040401e-14
0.015925346304044297
-0.018591445432576847
4.263256414560601e-14
0.018591445432583953
-0.02126234228525803
-2.1316282072803006e-14
0.021262342285133684
-0.02393777218541082
-2.0605739337042905e-13
0.023937772184824624
-0.026617483772826134
-1.4672707493446069e-12
0.026617483769769024
-0.02930122495537546
-1.0608403044898296e-11
0.029301224936942205
-0.031988749935646155
-7.412914726501185e-11
0.031988749848279596
-0.034679837709370887
-5.701892291654076e-10
0.03467983265322516
-0.03737424783678023
-1.0184741938701336e-10
0.0373742472115115
-0.04007176873948026
-1.673150507031096e-11
0.04007176864936213
-0.04277218299541907
-2.716049607442983e-12
0.04277218298257601
-0.045475280932192774
-4.4231285301066237e-13
0.04547528093050168
-0.04818085181228504
-7.460698725481052e-14
0.04818085181225662
-0.050888707110619436
-2.842170943040401e-14
0.05088870711084503
-0.05359864554344007
-7.105427357601002e-15
0.05359864554376337
-0.056310471574340326
-2.842170943040401e-14
0.05631047157465119
-0.059024010674020744
-4.440892098500626e-14
0.05902401067431562
-0.06173907757795938
-5.5067062021407764e-14
0.061739077578224055
-0.06445549386059035
-8.348877145181177e-14
0.06445549386083194
-0.0671730811089315
-9.769962616701378e-14
0.06717308110915532
-0.0698916840747561
-1.1368683772161603e-13
0.06989168407493196
-0.0726111137852321
-1.4921397450962104e-13
0.07261111378538665
-0.07533121003707954
-1.3677947663381929e-13
0.0753312100371879
-0.0780518123153584
-1.687538997430238e-13
0.07805181231538327
-0.08077271965776767
-2.0961010704922955e-13
0.08077271965780852
-0.08349374463413994
-2.3092638912203256e-13
0.08349374463409731
-0.08621466040764858
-2.5224267119483557e-13
0.08621466040753134
-0.088935110703801
-3.019806626980426e-13
0.08893511070369442
-0.09165452419286879
-3.232969447708456e-13
0.0916545241926805
-0.09437706846727778
-3.588240815588506e-13
0.09437706846703975
-0.09714868472032734
-4.050093593832571e-13
0.09714868472005733
-0.10027055354057524
-4.440892098500626e-13
0.1002705535402626
-0.1039836690844993
-4.476419235288631e-13
0.10398366908414758
-0.09981302480295184
-5.044853423896711e-13
0.09981302480238341
SCALARS strain22 float
LOOKUP_TABLE default
-0.002230573933161395
0.0039385163282759095
-0.003938516329469621
0.0022305739294097293
0.0007993992742285627
0.00305019893789904
0.004296902103760658
0.005723934047182411
0.007160432924365523
0.008604905238144056
0.01005082672725166
0.011498961243546546
0.012949206607572705
0.014401547063130238
0.01585590313288776
0.01731218404535184
0.018770297004607528
0.02023013381773353
0.021691594615049326
0.02315457454164971
0.02461896824689802
0.02608466941575216
0.027551578529482867
0.029019595206136728
0.03048861534352909
0.031958547727924724
0.03342929401259198
0.034900759019478755
0.03637285037984839
0.03784548025333834
0.03931854949865965
0.04079197133830803
0.04226565693352313
0.04373949803687083
0.045213392399318764
0.04668719310575398
0.04816086184149526
0.04963328046210336
0.0511091313726979
0.05258113445546542
0.05426058004559309
0.05559609312979319
0.0551599941038603
0.002082603118537918
0.0
-0.0020826031189926653
-0.055159994104144516
-0.05559609313024794
-0.054260580045877305
-0.05258113445563595
-0.05110913137286843
-0.04963328046233073
-0.048160861842063696
-0.04668719310609504
-0.045213392399830354
-0.043739498037325575
-0.04226565693397788
-0.040791971339046995
-0.03931854949917124
-0.0378454802540773
-0.03637285038053051
-0.03490075902050194
-0.03342929401321726
-0.03195854772519624
-0.030488615313061018
-0.029019594957674144
-0.027551580192948677
-0.0260846695311443
-0.024618968271227004
-0.023154574575471543
-0.021691594703042938
-0.020230133841266706
-0.01877029591628343
-0.01731218532705725
-0.015855903294550444
-0.014401547103148005
-0.012949206632015375
-0.011498961306415367
-0.010050826681890612
-0.008604905674701513
-0.007160432959835816
-0.005723934053207813
-0.004296902106489142
-0.003050198939490656
-0.0007993992762749258
0.005413368054178136
2.2737367544323206e-13
-0.00541336805474657
0.0011063155959618598
-2.2737367544323206e-13
-0.0011063155964166071
0.002314931738624182
-2.2737367544323206e-13
-0.0023149317390789292
0.0032270104601366256
1.1368683772161603e-13
-0.00322701046070506
0.004270102041687096
2.0463630789890885e-12
-0.004270102043392399
0.005339809955103192
1.4551915228366852e-11
-0.005339809965107634
0.006414177615852168
-7.79891706770286e-11
-0.006414177946680866
0.007490373087307489
8.412825991399586e-12
-0.007490373024893415
0.008568369509930562
-2.532942744437605e-10
-0.008568369774138773
0.009648111684327887
1.3415046851150692e-11
-0.009648111671140214
0.01072952041613462
-1.5802470443304628e-11
-0.010729520425684314
0.011812510107745311
-1.5006662579253316e-10
-0.011812510156687495
0.012896993489562192
-1.692114892648533e-09
-0.012896994133257067
0.013982889390263153
-2.7794158086180687e-09
-0.013982887921883957
0.015070108252302816
-5.128413249622099e-10
-0.015070108154986883
0.01615857088904704
-3.1013769330456853e-10
-0.016158571153255252
0.01724819621813367
4.860112312599085e-11
-0.017248196166974594
0.01833890312877884
7.048583938740194e-12
-0.018338903135486362
0.01943061281616565
3.126388037344441e-12
-0.01943061290978676
0.020523251700467426
-6.821210263296962e-11
-0.020523252760824562
0.02161674455658158
-4.888534022029489e-12
-0.0216167443417703
0.02271101703331624
-1.0231815394945443e-12
-0.022711017002848166
0.023806005199730862
0.0
-0.023806005195638136
0.024901637600748927
1.1368683772161603e-13
-0.024901637600009963
0.025997849773261805
0.0
-0.025997849773091275
0.02709457994217246
0.0
-0.027094579942286146
0.028191769492451613
1.1368683772161603e-13
-0.028191769492451613
0.029289356157647717
1.7053025658242404e-13
-0.02928935615750561
0.030387292510170028
2.2737367544323206e-13
-0.030387292509999497
0.03148552860378118
2.8421709430404007e-13
-0.03148552860363907
0.03258400777639281
2.2737367544323206e-13
-0.03258400777608017
0.03368268950754327
2.8421709430404007e-13
-0.033682689507429586
0.03478152714706084
3.979039320256561e-13
-0.03478152714683347
0.03588045399482098
1.7053025658242404e-13
-0.03588045399447992
0.036979199436586896
2.8421709430404007e-13
-0.03697919943630268
0.03807843083370699
5.115907697472721e-13
-0.038078430833138555
0.03918933338871966
4.547473508864641e-13
-0.039189333388605974
0.04042634846518922
5.684341886080801e-13
-0.04042634846501869
0.04198588036416595
7.389644451905042e-13
-0.04198588036365436
0.040642750349036305
6.821210263296962e-13
-0.0406427503482405
SCALARS strain12 float
LOOKUP_TABLE default
0.00479175150599076
0.11889788570465498
0.1188978857079519
0.004791751182665394
0.005933897404929667
0.00663729227130716
0.0067740976353434235
0.006693148493241097
0.00670844573710383
0.0067199807037923165
0.006732377694106617
0.006743552918123896
0.006754182075837889
0.006764338131688419
0.006774103650741381
0.006783532175404616
0.006792601928395925
0.006801400913332145
0.006809902326494921
0.006818150144795254
0.006826194429891075
0.0068341026487814815
0.006841868702508691
0.006849592529306392
0.006857383555939123
0.006865272545041989
0.006873421230579879
0.006881990900978963
0.006891235539001173
0.006901301406514904
0.0069127354739748625
0.006925958809233634
0.006941612731793612
0.006960963046367397
0.0069855717273412665
0.007017924560045685
0.00706324295288141
0.007127576724997198
0.007236005761114939
0.007330823695269828
0.007721239380657607
0.007981192088550415
0.03517723562242736
0.07401953700889408
0.05823710148911232
0.07401953700912145
0.03517723562526953
0.007981192092188394
0.007721239388047252
0.00733082371675664