# vtk DataFile Version 2.0
Generated Volume Mesh
ASCII
DATASET UNSTRUCTURED_GRID
POINTS 205 float
0.0 -0.009999999776482582 0.0
0.20000000298023224 -0.009999999776482582 0.0
0.20000000298023224 0.009999999776482582 0.0
0.0 0.009999999776482582 0.0
0.004999999888241291 -0.009999999776482582 0.0
0.009999999776482582 -0.009999999776482582 0.0
0.014999999664723873 -0.009999999776482582 0.0
0.019999999552965164 -0.009999999776482582 0.0
0.02500000037252903 -0.009999999776482582 0.0
0.029999999329447746 -0.009999999776482582 0.0
0.03500000014901161 -0.009999999776482582 0.0
0.03999999910593033 -0.009999999776482582 0.0
0.04500000178813934 -0.009999999776482582 0.0
0.05000000074505806 -0.009999999776482582 0.0
0.054999999701976776 -0.009999999776482582 0.0
0.05999999865889549 -0.009999999776482582 0.0
0.06499999761581421 -0.009999999776482582 0.0
0.07000000029802322 -0.009999999776482582 0.0
0.07500000298023224 -0.009999999776482582 0.0
0.07999999821186066 -0.009999999776482582 0.0
0.08500000089406967 -0.009999999776482582 0.0
0.09000000357627869 -0.009999999776482582 0.0
0.0949999988079071 -0.009999999776482582 0.0
0.10000000149011612 -0.009999999776482582 0.0
0.10499999672174454 -0.009999999776482582 0.0
0.10999999940395355 -0.009999999776482582 0.0
0.11500000208616257 -0.009999999776482582 0.0
0.11999999731779099 -0.009999999776482582 0.0
0.125 -0.009999999776482582 0.0
0.12999999523162842 -0.009999999776482582 0.0
0.13500000536441803 -0.009999999776482582 0.0
0.14000000059604645 -0.009999999776482582 0.0
0.14499999582767487 -0.009999999776482582 0.0
0.15000000596046448 -0.009999999776482582 0.0
0.1550000011920929 -0.009999999776482582 0.0
0.1599999964237213 -0.009999999776482582 0.0
0.16500000655651093 -0.009999999776482582 0.0
0.17000000178813934 -0.009999999776482582 0.0
0.17499999701976776 -0.009999999776482582 0.0
0.18000000715255737 -0.009999999776482582 0.0
0.1850000023841858 -0.009999999776482582 0.0
0.1899999976158142 -0.009999999776482582 0.0
0.19499999284744263 -0.009999999776482582 0.0
0.20000000298023224 -0.004999999888241291 0.0
0.20000000298023224 -2.538941279439655e-14 0.0
0.20000000298023224 0.004999999888241291 0.0
0.19499999284744263 0.009999999776482582 0.0
0.1899999976158142 0.009999999776482582 0.0
0.1850000023841858 0.009999999776482582 0.0
0.18000000715255737 0.009999999776482582 0.0
0.17499999701976776 0.009999999776482582 0.0
0.17000000178813934 0.009999999776482582 0.0
0.16500000655651093 0.009999999776482582 0.0
0.1599999964237213 0.009999999776482582 0.0
0.1550000011920929 0.009999999776482582 0.0
0.15000000596046448 0.009999999776482582 0.0
0.14499999582767487 0.009999999776482582 0.0
0.14000000059604645 0.009999999776482582 0.0
0.13500000536441803 0.009999999776482582 0.0
0.12999999523162842 0.009999999776482582 0.0
0.125 0.009999999776482582 0.0
0.11999999731779099 0.009999999776482582 0.0
0.11500000208616257 0.009999999776482582 0.0
0.10999999940395355 0.009999999776482582 0.0
0.10499999672174454 0.009999999776482582 0.0
0.10000000149011612 0.009999999776482582 0.0
0.0949999988079071 0.009999999776482582 0.0
0.09000000357627869 0.009999999776482582 0.0
0.08500000089406967 0.009999999776482582 0.0
0.07999999821186066 0.009999999776482582 0.0
0.07500000298023224 0.009999999776482582 0.0
0.07000000029802322 0.009999999776482582 0.0
0.06499999761581421 0.009999999776482582 0.0
0.05999999865889549 0.009999999776482582 0.0
0.054999999701976776 0.009999999776482582 0.0
0.05000000074505806 0.009999999776482582 0.0
0.04500000178813934 0.009999999776482582 0.0
0.03999999910593033 0.009999999776482582 0.0
0.03500000014901161 0.009999999776482582 0.0
0.029999999329447746 0.009999999776482582 0.0
0.02500000037252903 0.009999999776482582 0.0
0.019999999552965164 0.009999999776482582 0.0
0.014999999664723873 0.009999999776482582 0.0
0.009999999776482582 0.009999999776482582 0.0
0.004999999888241291 0.009999999776482582 0.0
0.0 0.004999999888241291 0.0
0.0 2.538941279439655e-14 0.0
0.0 -0.004999999888241291 0.0
0.004999999888241291 -0.004999999888241291 0.0
0.004999999888241291 2.4119595209981526e-14 0.0
0.004999999888241291 0.004999999888241291 0.0
0.009999999776482582 -0.004999999888241291 0.0
0.009999999776482582 2.285064498730449e-14 0.0
0.009999999776482582 0.004999999888241291 0.0
0.014999999664723873 -0.004999999888241291 0.0
0.014999999664723873 2.158082740288947e-14 0.0
0.014999999664723873 0.004999999888241291 0.0
0.019999999552965164 -0.004999999888241291 0.0
0.019999999552965164 2.0311877180212434e-14 0.0
0.019999999552965164 0.004999999888241291 0.0
0.02500000037252903 -0.004999999888241291 0.0
0.02500000037252903 1.904205959579741e-14 0.0
0.02500000037252903 0.004999999888241291 0.0
0.029999999329447746 -0.004999999888241291 0.0
0.029999999329447746 1.777224201138239e-14 0.0
0.029999999329447746 0.004999999888241291 0.0
0.03500000014901161 -0.004999999888241291 0.0
0.03500000014901161 1.6503291788705354e-14 0.0
0.03500000014901161 0.004999999888241291 0.0
0.03999999910593033 -0.004999999888241291 0.0
0.03999999910593033 1.523347420429033e-14 0.0
0.03999999910593033 0.004999999888241291 0.0
0.04500000178813934 -0.004999999888241291 0.0
0.04500000178813934 1.3964957662482291e-14 0.0
0.04500000178813934 0.004999999888241291 0.0
0.05000000074505806 -0.004999999888241291 0.0
0.05000000074505806 1.2695140078067269e-14 0.0
0.05000000074505806 0.004999999888241291 0.0
0.054999999701976776 -0.004999999888241291 0.0
0.054999999701976776 1.1424888812783252e-14 0.0
0.054999999701976776 0.004999999888241291 0.0
0.05999999865889549 -0.004999999888241291 0.0
0.05999999865889549 1.0155938590106217e-14 0.0
0.05999999865889549 0.004999999888241291 0.0
0.06499999761581421 -0.004999999888241291 0.0
0.06499999761581421 8.886121005691194e-15 0.0
0.06499999761581421 0.004999999888241291 0.0
0.07000000029802322 -0.004999999888241291 0.0
0.07000000029802322 7.617604463883154e-15 0.0
0.07000000029802322 0.004999999888241291 0.0
0.07500000298023224 -0.004999999888241291 0.0
0.07500000298023224 6.347786879468131e-15 0.0
0.07500000298023224 0.004999999888241291 0.0
0.07999999821186066 -0.004999999888241291 0.0
0.07999999821186066 5.077535614184114e-15 0.0
0.07999999821186066 0.004999999888241291 0.0
0.08500000089406967 -0.004999999888241291 0.0
0.08500000089406967 3.809019072376074e-15 0.0
0.08500000089406967 0.004999999888241291 0.0
0.09000000357627869 -0.004999999888241291 0.0
0.09000000357627869 2.538767807092057e-15 0.0
0.09000000357627869 0.004999999888241291 0.0
0.0949999988079071 -0.004999999888241291 0.0
0.0949999988079071 1.2698175844150228e-15 0.0
0.0949999988079071 0.004999999888241291 0.0
0.10000000149011612 -0.004999999888241291 0.0
0.10000000149011612 0.0 0.0
0.10000000149011612 0.004999999888241291 0.0
0.10499999672174454 -0.004999999888241291 0.0
0.10499999672174454 -1.2698175844150228e-15 0.0
0.10499999672174454 0.004999999888241291 0.0
0.10999999940395355 -0.004999999888241291 0.0
0.10999999940395355 -2.538767807092057e-15 0.0
0.10999999940395355 0.004999999888241291 0.0
0.11500000208616257 -0.004999999888241291 0.0
0.11500000208616257 -3.80858539150708e-15 0.0
0.11500000208616257 0.004999999888241291 0.0
0.11999999731779099 -0.004999999888241291 0.0
0.11999999731779099 -5.077535614184114e-15 0.0
0.11999999731779099 0.004999999888241291 0.0
0.125 -0.004999999888241291 0.0
0.125 -6.347570039033634e-15 0.0
0.125 0.004999999888241291 0.0
0.12999999523162842 -0.004999999888241291 0.0
0.12999999523162842 -7.617387623448657e-15 0.0
0.12999999523162842 0.004999999888241291 0.0
0.13500000536441803 -0.004999999888241291 0.0
0.13500000536441803 -8.886121005691194e-15 0.0
0.13500000536441803 0.004999999888241291 0.0
0.14000000059604645 -0.004999999888241291 0.0
0.14000000059604645 -1.0155938590106217e-14 0.0
0.14000000059604645 0.004999999888241291 0.0
0.14499999582767487 -0.004999999888241291 0.0
0.14499999582767487 -1.1424888812783252e-14 0.0
0.14499999582767487 0.004999999888241291 0.0
0.15000000596046448 -0.004999999888241291 0.0
0.15000000596046448 -1.2694923237632771e-14 0.0
0.15000000596046448 0.004999999888241291 0.0
0.1550000011920929 -0.004999999888241291 0.0
0.1550000011920929 -1.3964523981613297e-14 0.0
0.1550000011920929 0.004999999888241291 0.0
0.1599999964237213 -0.004999999888241291 0.0
0.1599999964237213 -1.523369104472483e-14 0.0
0.1599999964237213 0.004999999888241291 0.0
0.16500000655651093 -0.004999999888241291 0.0
0.16500000655651093 -1.650350862913985e-14 0.0
0.16500000655651093 0.004999999888241291 0.0
0.17000000178813934 -0.004999999888241291 0.0
0.17000000178813934 -1.777224201138239e-14 0.0
0.17000000178813934 0.004999999888241291 0.0
0.17499999701976776 -0.004999999888241291 0.0
0.17499999701976776 -1.9041625914928417e-14 0.0
0.17499999701976776 0.004999999888241291 0.0
0.18000000715255737 -0.004999999888241291 0.0
0.18000000715255737 -2.0311768759995186e-14 0.0
0.18000000715255737 0.004999999888241291 0.0
0.1850000023841858 -0.004999999888241291 0.0
0.1850000023841858 -2.158109845343259e-14 0.0
0.1850000023841858 0.004999999888241291 0.0
0.1899999976158142 -0.004999999888241291 0.0
0.1899999976158142 -2.2850319726652746e-14 0.0
0.1899999976158142 0.004999999888241291 0.0
0.19499999284744263 -0.004999999888241291 0.0
0.19499999284744263 -2.4119568104927214e-14 0.0
0.19499999284744263 0.004999999888241291 0.0
CELLS 160 800
4 0 4 88 87
4 87 88 89 86
4 86 89 90 85
4 85 90 84 3
4 4 5 91 88
4 88 91 92 89
4 89 92 93 90
4 90 93 83 84
4 5 6 94 91
4 91 94 95 92
4 92 95 96 93
4 93 96 82 83
4 6 7 97 94
4 94 97 98 95
4 95 98 99 96
4 96 99 81 82
4 7 8 100 97
4 97 100 101 98
4 98 101 102 99
4 99 102 80 81
4 8 9 103 100
4 100 103 104 101
4 101 104 105 102
4 102 105 79 80
4 9 10 106 103
4 103 106 107 104
4 104 107 108 105
4 105 108 78 79
4 10 11 109 106
4 106 109 110 107
4 107 110 111 108
4 108 111 77 78
4 11 12 112 109
4 109 112 113 110
4 110 113 114 111
4 111 114 76 77
4 12 13 115 112
4 112 115 116 113
4 113 116 117 114
4 114 117 75 76
4 13 14 118 115
4 115 118 119 116
4 116 119 120 117
4 117 120 74 75
4 14 15 121 118
4 118 121 122 119
4 119 122 123 120
4 120 123 73 74
4 15 16 124 121
4 121 124 125 122
4 122 125 126 123
4 123 126 72 73
4 16 17 127 124
4 124 127 128 125
4 125 128 129 126
4 126 129 71 72
4 17 18 130 127
4 127 130 131 128
4 128 131 132 129
4 129 132 70 71
4 18 19 133 130
4 130 133 134 131
4 131 134 135 132
4 132 135 69 70
4 19 20 136 133
4 133 136 137 134
4 134 137 138 135
4 135 138 68 69
4 20 21 139 136
4 136 139 140 137
4 137 140 141 138
4 138 141 67 68
4 21 22 142 139
4 139 142 143 140
4 140 143 144 141
4 141 144 66 67
4 22 23 145 142
4 142 145 146 143
4 143 146 147 144
4 144 147 65 66
4 23 24 148 145
4 145 148 149 146
4 146 149 150 147
4 147 150 64 65
4 24 25 151 148
4 148 151 152 149
4 149 152 153 150
4 150 153 63 64
4 25 26 154 151
4 151 154 155 152
4 152 155 156 153
4 153 156 62 63
4 26 27 157 154
4 154 157 158 155
4 155 158 159 156
4 156 159 61 62
4 27 28 160 157
4 157 160 161 158
4 158 161 162 159
4 159 162 60 61
4 28 29 163 160
4 160 163 164 161
4 161 164 165 162
4 162 165 59 60
4 29 30 166 163
4 163 166 167 164
4 164 167 168 165
4 165 168 58 59
4 30 31 169 166
4 166 169 170 167
4 167 170 171 168
4 168 171 57 58
4 31 32 172 169
4 169 172 173 170
4 170 173 174 171
4 171 174 56 57
4 32 33 175 172
4 172 175 176 173
4 173 176 177 174
4 174 177 55 56
4 33 34 178 175
4 175 178 179 176
4 176 179 180 177
4 177 180 54 55
4 34 35 181 178
4 178 181 182 179
4 179 182 183 180
4 180 183 53 54
4 35 36 184 181
4 181 184 185 182
4 182 185 186 183
4 183 186 52 53
4 36 37 187 184
4 184 187 188 185
4 185 188 189 186
4 186 189 51 52
4 37 38 190 187
4 187 190 191 188
4 188 191 192 189
4 189 192 50 51
4 38 39 193 190
4 190 193 194 191
4 191 194 195 192
4 192 195 49 50
4 39 40 196 193
4 193 196 197 194
4 194 197 198 195
4 195 198 48 49
4 40 41 199 196
4 196 199 200 197
4 197 200 201 198
4 198 201 47 48
4 41 42 202 199
4 199 202 203 200
4 200 203 204 201
4 201 204 46 47
4 42 1 43 202
4 202 43 44 203
4 203 44 45 204
4 204 45 2 46
CELL_TYPES 160
9
9
9
9
9
9
9
9
9
9
9
9
9
9
9
9
9
9
9
9
9
9
9
9
9
9
9
9
9
9
9
9
9
9
9
9
9
9
9
9
9
9
9
9
9
9
9
9
9
9
9
9
9
9
9
9
9
9
9
9
9
9
9
9
9
9
9
9
9
9
9
9
9
9
9
9
9
9
9
9
9
9
9
9
9
9
9
9
9
9
9
9
9
9
9
9
9
9
9
9
9
9
9
9
9
9
9
9
9
9
9
9
9
9
9
9
9
9
9
9
9
9
9
9
9
9
9
9
9
9
9
9
9
9
9
9
9
9
9
9
9
9
9
9
9
9
9
9
9
9
9
9
9
9
9
9
9
9
9
9
POINT_DATA 205
SCALARS stress11 float
LOOKUP_TABLE default
-6777698139.887695
-263644786614.0266
263634030814.08398
6779660293.043457
-6242582621.151855
-12346934536.597168
-19999099732.466797
-26237573604.083496
-32602265505.6875
-38937379663.01953
-45298664626.32178
-51672172861.34668
-58053918086.1084
-64437541991.18506
-70820575309.22021
-77213164226.24512
-83588558381.60938
-89959597669.40625
-96335503194.0459
-102708754863.1753
-109078090983.31445
-115446652586.0791
-121812263713.33643
-128185937180.81396
-134558247685.6919
-140923477463.9165
-147285552273.8828
-153646480767.63623
-160004772121.71777
-166358548211.03223
-172710460442.9829
-179054743308.23877
-185395925308.43945
-191730939473.04834
-198055101127.0454
-204368843676.54688
-210662012197.29932
-216947628582.90186
-223145730446.45264
-229547194789.28955
-234779846371.0298
-238560467118.4856
-238479241845.51562
-126445388170.05078
-4444862.75
126436328493.50427
238471066118.95874
238552591640.0984
234771706308.81885
229538834107.84082
223137492698.35107
216940044365.7539
210653941043.02588
204361701329.67188
198046740002.1543
191722376684.60254
185389316925.9209
179047205087.28027
172702484990.9961
166353259646.68115
159999354279.5005
153643280162.24902
147281487133.2422
140918433796.45898
134552958487.28223
128180230273.49219
121807451475.20605
115446923303.48633
109074936077.05469
102702543036.68994
96332297020.86719
89963536872.3125
83587296671.47021
77208330648.29883
70824338446.45654
64436889316.58301
58048331263.43848
51672683661.79883
45302282970.25293
38946515779.53906
32599223204.78125
26241012519.171875
19995152286.165527
12351492533.172363
6248403509.521484
5668202845.387207
-391764.83728027344
-5667415069.946289
-3379041639.722168
-908744.375
3380242052.94458
-6916566600.756592
2295200.635498047
6921979178.423096
-9199835624.432617
2189422.302001953
9199841559.119629
-12144467894.901367
2225907.75
12149980285.476562
-15176909590.901367
2380482.533935547
15180903460.738525
-18199882104.26123
334931.2598876953
18200742855.1167
-21224318031.62915
291586.5625
21225819315.697266
-24250347858.51123
1579097.0045166016
24251759015.979004
-27274716967.193848
2476622.928588867
27277303970.365723
-30304876600.277832
-518340.59375
30304547344.566162
-33329499449.930176
3625536.303894043
33330928086.52832
-36361703979.00244
-261886.8969116211
36359705847.20288
-39382910348.3667
1353044.9263305664
39384893421.38501
-42405066247.631836
552373.2810668945
42405193593.46997
-45427130003.9751
469963.6438598633
45426143188.387695
-48449385830.67627
-1783532.9822387695
48446753223.75171
-51468749584.40039
-1152029.6697998047
51465869474.444336
-54489272906.99414
-1641116.736694336
54486111053.39429
-57507092010.41211
-2250327.08782959
57502971971.72168
-60527662160.22461
-2082236.80078125
60523667818.45044
-63546784276.02637
-2074961.8925170898
63543085977.683105
-66567441423.25586
-2649861.0681152344
66562291149.96948
-69586850529.47559
-2539713.890563965
69579925720.7395
-72604684062.40405
-3279687.3864746094
72600255619.61401
-75622473822.34766
-2970834.8985595703
75617714518.35498
-78641742589.55664
-3648658.2571411133
78635194542.15259
-81659055805.06812
-3342691.5696105957
81652303243.76147
-84676795661.4187
-4216597.258361816
84668423572.52368
-87694069864.96777
-3842671.724304199
87686001103.75122
-90711328531.16675
-3878649.96673584
90702894884.49219
-93727111481.70679
-3126494.089050293
93720292332.05322
-96742369980.45898
-3070470.074584961
96736258818.21533
-99758870490.4668
-4481066.168136597
99750326527.7351
-102772035709.22314
-4237485.472747803
102763704009.51416
-105778506805.76367
-4249692.188903809
105770026846.21973
-108751774732.09131
-4140320.772918701
108743535534.073
-112149723310.40942
-4196409.354820251
112141359630.35986
-117195629137.92651
-4192122.0250701904
117187133007.14673
-111092803113.08789
-3816662.674156189
111085152132.90442
SCALARS stress22 float
LOOKUP_TABLE default
-5637715299.575439
-108422144323.75366
108417174583.20764
5632875250.440796
-1849290227.1469727
-1598044836.2529297
-3801203489.328369
-4751069767.660156
-5889693451.0625
-6973381405.564453
-8087927223.319092
-9201577267.72705
-10319863101.70337
-11441332961.386475
-12550396002.08081
-13679929581.344727
-14791193647.117676
-15900580284.25
-17015994759.748291
-18132750419.55127
-19247657410.739746
-20366605422.370605
-21476102294.665283
-22594298549.588867
-23710031429.638184
-24823691829.135498
-25937773379.0
-27047432794.72827
-28159493130.874268
-29268235559.692627
-30378953922.285645
-31483814811.417236
-32589353950.30005
-33691794136.916504
-34788502881.74829
-35881897424.78125
-36965267216.53369
-38058681082.45581
-39068387887.74756
-40353212713.94751
-40465909724.84326
-41269648770.24097
-37402365935.0343
-51792850139.68207
-1906745.125
51788812914.46835
37402369395.200806
41269543349.148926
40465837392.31555
40353049359.018555
39068166939.40527
38058863815.46387
36963750814.77515
35883821042.96875
34788377113.140625
33690512068.21582
32590306896.35034
31483496352.375732
30380310397.678955
29273520836.380127
28160619390.761475
27051618921.598633
25938188685.53125
24824655905.26587
23712276089.118896
22594107107.008057
21478301500.276123
20373411136.15454
19244117910.597168
18128481940.070312
17012817684.754395
15902458393.75
14783171922.40039
13666568297.514404
12548304982.105469
11436389669.848877
10318626930.067383
9211520376.96875
8092556081.710449
6990449669.984375
5890478852.0
4764011926.661133
3795821894.4558105
1610863446.322998
1854370711.3591309
9515717983.544373
7866820.668579102
-9511336014.374756
272468340.383667
3335377.8125
-267505219.6743164
-285752394.13012695
6583347.323059082
299112125.2388916
-342635130.03881836
4825116.133605957
345103681.42297363
-371728597.7114258
4598632.75
383120626.2609863
-471725977.1623535
8814418.831359863
480981667.1397705
-555656283.7192383
7525072.585418701
571379535.3425293
-652017883.086792
7433795.0
664791323.6918945
-750947955.0887451
1828775.8481750488
755179716.4925537
-840119445.2480469
-1163311.4652404785
842776130.7636719
-941059961.6240234
-4731470.875
933550196.2241211
-1021033186.206543
3986137.9536743164
1021986492.7423096
-1124854870.5760498
-5794713.6429748535
1111800636.3270264
-1211136014.682129
555524.9564819336
1205455576.303833
-1298769469.538208
-301380.61012268066
1296444828.4216309
-1389174723.2424316
296452.51678466797
1387769648.6262207
-1482260629.0081787
-2087411.469406128
1478547699.0133057
-1571225673.572998
2543706.6791381836
1572855676.8874512
-1666963662.4421387
2408580.660583496
1671736011.6347656
-1754890953.2202148
1093413.391708374
1756507956.7636719
-1847715701.1015625
649318.5971221924
1849699092.2675781
-1939465317.0821533
-437240.9144592285
1940090065.9627686
-2031794863.4846191
-901537.2053833008
2031458787.602539
-2122323530.6103516
1554416.4682312012
2122461239.77771
-2213177047.1644287
1292513.7347717285
2217263027.783325
-2302703866.1103516
1514731.7722625732
2305430018.516968
-2396593139.0664062
-914089.9202880859
2398120292.204468
-2487063187.196289
1068915.689781189
2489145518.4124756
-2577874880.5595703
-12791.26481628418
2577361362.0281982
-2669493201.953003
34598.20616912842
2669518183.0872803
-2761248901.6989746
-815603.0647201538
2759260498.819092
-2850384352.9283447
492950.3572540283
2851255715.6175537
-2939483457.940796
1496933.501663208
2941948412.781494
-3031058221.7539062
-843147.69871521
3029329940.2214355
-3120941034.6030273
-230526.6201286316
3120652825.725464
-3204067492.8529053
-169809.72161102295
3203707469.2070312
-3312817736.512207
-4630.5444984436035
3312736889.6228027
-3486254405.1760864
-39779.77752304077
3486105406.024414
-3689752698.1256714
-266377.688621521
3689268327.592041
-163336462.8880005
-150602.56217193604
163372490.32678223
SCALARS stress12 float
LOOKUP_TABLE default
1729191621.0
47053235292.875
47051168309.875
1732152406.5
2236094840.0
2424930424.5
2547273409.0
2475415522.5
2494455042.625
2490204038.125
2493220772.25
2494771374.125
2497110671.875
2495385937.125
2496215246.875
2495179561.625
2489819551.125
2488316974.5
2488771446.875
2490655262.125
2491164388.75
2490903279.4375
2491822186.1875
2494164531.0
2495071795.0
2495811822.125
2497395924.375
2499172955.8125
2500959769.5
2503167076.375
2507065684.3125
2512125658.0
2518314703.25
2524828954.875
2533965077.3125
2545722807.125
2564380612.4375
2583430885.625
2647934157.4375
2642382633.5625
2975550386.75
2500210770.875
12957863358.875
28456870770.875
22198464712.0
28455885368.0
12957348930.25
2499986856.625
2975487393.5
2642101092.875
2647317956.8125
2582930361.125
2564720325.3125
2545995434.8125
2534012358.5625
2524466523.0625
2517579302.625
2512051345.6875
2507008314.4375
2503796591.5625
2500920765.5625
2498645159.6875
2496481236.375
2494754381.125
2494605502.25
2493730882.4375
2491027355.25
2490325466.0625
2491814890.5
2490348205.5
2490094030.125
2489975747.125
2491570210.0
2491629456.625
2496111122.25
2495855023.375
2496097975.625
2493796960.125
2493445291.25
2490810627.125
2496790239.5
2478831490.75
2547151644.75
2426468947.25
2238625378.5
2994844434.25
7389601323.25
2997548288.5
3450745766.5
5926156127.25
3451451523.0
3809551680.75
4781346473.0
3809795214.75
3774693451.5
5074462678.5
3775616438.75
3800275511.625
5072244642.25
3802730144.375
3792745300.375
5074786834.0
3794165719.375
3793813428.375
5071862897.625
3795788796.0
3794856818.625
5072845313.75
3796039181.25
3799950107.0
5078505719.625
3799084028.125
3801427842.375
5079342332.125
3800469620.0
3800956682.625
5080360900.125
3802140822.125
3800674903.5
5079043299.75
3800744250.25
3798267268.625
5073272119.75
3794981119.25
3792985745.25
5068932598.25
3792827980.375
3790368252.75
5066553660.875
3790700512.25
3790024112.75
5064734469.625
3789910787.25
3789112579.875
5064329456.5
3789190381.625
3788882057.0
5062345622.75
3788383219.125
3787981631.5625
5063050254.1875
3787786944.8125
3790045066.3125
5064857858.125
3789677622.125
3790935904.625
5066688006.625
3790226927.4375
3791183784.6875
5066225676.5625
3790294445.5625
3789094404.0625
5064428188.6875
3789328322.875
3789128102.8125
5063822727.4375
3788909355.0625
3789425844.1875
5064310097.125
3789063394.5625
3788776505.625
5063163795.9375
3788553974.4375
3788442635.625
5062567143.0625
3788149293.625
3788507549.3125
5063320247.4375
3789104480.5625
3789872649.375
5064076354.5625
3789951217.5625
3790753858.8125
5064462515.9375
3790571348.8125
3791080960.1875
5064642887.125
3790789053.25
3791594589.75
5065126121.375
3791707556.3125
3792604082.625
5065224718.0
3792820653.125
3792490400.4375
5065968362.625
3792656640.5
3797255144.6875
5063407995.75
3797024660.3125
3790837102.3125
5073247373.125
3790667642.4375
3833448046.4375
5034909787.6875
3833413328.8125
3793401212.375
5348276810.25
3793412435.75
4593578923.75
5739721839.75
4593463943.25
4940658036.25
3976218224.0
4940557225.25
SCALARS strain11 float
LOOKUP_TABLE default
-0.003968996169199546
-0.19763210182748758
0.1976242615446997
0.0039726691881885046
-0.004959526983648654
-0.010612472612576695
-0.016716711013594843
-0.02202327534043702
-0.02737108092556184
-0.03271339972660048
-0.03806749283482569
-0.043433062567123315
-0.04880431744251279
-0.05417603905279078
-0.059552066268321546
-0.0649288017076528
-0.07029702516677094
-0.07566200956662694
-0.08102906811839317
-0.0863931879760691
-0.09175447748000476
-0.09711348029960609
-0.1024734785866297
-0.10783742627564408
-0.11320109341965257
-0.11855912287806358
-0.12391411716478196
-0.12926979603192335
-0.13462214073793888
-0.1399716663527788
-0.14531871688314846
-0.15066113119218194
-0.15600044834501325
-0.1613353516322098
-0.16666262243249808
-0.17198170769406573
-0.1772859705527976
-0.18257945033279688
-0.18782594783344164
-0.19315020091825796
-0.19786794876769154
-0.20099485134436557
-0.20242918603722293
-0.09486609732850249
-3.300853528287462e-06
0.09485942560972938
0.20242174989074124
0.20098773260755443
0.19786057275067037
0.19314264178713003
0.18781852775193242
0.18257248736183396
0.17727922647585492
0.1719744622696986
0.16665506952375297
0.16132806555421997
0.15599406543793393
0.1506544001566743
0.14531093084340618
0.13996479758768698
0.1346167768694535
0.1292652518090267
0.12391026165433772
0.11855416163913945
0.11319540872356448
0.10783231092718726
0.10246824402163002
0.09711107208144343
0.09175298761588335
0.08638920952175866
0.08102739335522235
0.07566485619601249
0.0702989978225732
0.06492961838244105
0.05955631177645593
0.054177377540250315
0.04879971600012745
0.04342964823240969
0.03806897938381004
0.03271505431359678
0.027368005376573024
0.02202135637556113
0.016715217728409115
0.010611621640287172
0.004962842482886032
0.001446934333471095
-3.4241568948045753e-06
-0.001447926708297631
-0.0031811903245444473
-2.127690700959306e-06
0.0031803474062392922
-0.0061826322032443315
-4.788445417958087e-07
0.006182347443273395
-0.008238222689085362
1.1057530924230008e-07
0.00823726547297432
-0.010906491707577626
2.3220861855577368e-07
0.010907065223607182
-0.013627014437588292
-1.2714168885485932e-06
0.013627038673622138
-0.016345186770100106
-2.6296772901446275e-06
0.016339837539705915
-0.019059842760916768
-2.633766706949814e-06
0.0190562271135597
-0.021774947519213717
7.238277863752529e-07
0.021774579597021004
-0.024492345980561714
2.707429161530328e-06
0.024493662842033803
-0.027210423846043774
1.3734074482130154e-06
0.02721305330965973
-0.029931640300434825
1.7446965219214405e-06
0.029932570226332444
-0.03265045794680543
2.0218442836617e-06
0.03265372939273181
-0.03536610524571371
1.0147447682684607e-06
0.035370127348166136
-0.038082089213713255
6.202761784201982e-07
0.03808311398648767
-0.04079691094264937
3.120059210992565e-07
0.04079655917617031
-0.043510858899533655
-8.095394212204177e-07
0.043509912349384505
-0.04622378281301254
-2.040433178973622e-06
0.04622052675979327
-0.048935122284339716
-2.4328836351061867e-06
0.04893038326055699
-0.05164704538261944
-2.47429708544189e-06
0.051642666340296906
-0.0543595633925793
-2.147968484245144e-06
0.05435515383310685
-0.05707118198675065
-1.7180612101319603e-06
0.05706757233128523
-0.05978397247962253
-2.0599005038368645e-06
0.059779414490301
-0.062496327314354616
-2.9177503340360733e-06
0.062489974372395674
-0.06520712331900258
-3.4888289540124795e-06
0.06520149881348392
-0.06791839476897477
-3.2949937201487423e-06
0.06791300452849836
-0.07062931470513067
-2.963846747361387e-06
0.07062275857657618
-0.0733397861799816
-3.4579585549143754e-06
0.07333282766398375
-0.07605051290303688
-3.832609137610632e-06
0.0760430926596447
-0.07876050201990892
-3.509947286373105e-06
0.07875314970959546
-0.08147042221220602
-3.210604087283686e-06
0.08146352064683549
-0.0841800154111152
-3.0376895022166117e-06
0.08417347430360134
-0.08688915794704921
-3.3772747121962876e-06
0.08688263896164772
-0.08959845806611666
-3.748707681619501e-06
0.08959135745847546
-0.09230538809909161
-3.765984577130954e-06
0.09229791298163503
-0.09500885314270335
-3.8015498231153133e-06
0.09500127809549097
-0.09767211678211218
-3.765597068230986e-06
0.09766464882976611
-0.10069661093220317
-3.8035206985642667e-06
0.10068905858037058
-0.1052090156597163
-3.7109007711561004e-06
0.10520147915109401
-0.10103074940647438
-3.4144583611617207e-06
0.10102377049760503
SCALARS strain22 float
LOOKUP_TABLE default
-0.0024870186917614334
0.004157306475749162
-0.004157645994890796
0.002481848955546151
0.0007517531282415779
0.003361083468346099
0.004340553743715933
0.005909180890136076
0.007355263123486111
0.008839803368370494
0.010306466889561688
0.01177871270092111
0.013249952095429077
0.014719027141210803
0.01619916378101602
0.01766439692175263
0.01913955449896182
0.020614718892602468
0.0220862930061773
0.02355561088514304
0.025025087082429218
0.026490585940021807
0.02796352920920496
0.029431707070268327
0.030901589821805187
0.03237059815477382
0.033837992498547464
0.03530896489306793
0.03677672357224807
0.03824574201806763
0.03971222905286464
0.04118108239085725
0.04264810562420791
0.04411553539682471
0.04558395188183456
0.04705132421543112
0.04851978932847553
0.04997617514434319
0.051474607302482
0.05280198870213683
0.05474016046239891
0.05548319654261316
0.0589707548992037
0.002182209857109235
-1.7702461718727136e-09
-0.002182351834219734
-0.058967569113421964
-0.055480225669190336
-0.0547370538670117
-0.05279886705375666
-0.0514715915300954
-0.04997305901367274
-0.04851802974713314
-0.047046795248718354
-0.04558080893374722
-0.04411336232148724
-0.0426446597768341
-0.04117843402810259
-0.03970788553998368
-0.03823887310246341
-0.03677359216918888
-0.03530391084965536
-0.03383603091364762
-0.03236775536559856
-0.030897486489334228
-0.029429655409023384
-0.0279596527618872
-0.02648449774202552
-0.025027081339377616
-0.023557074966467036
-0.022087932781168905
-0.02061454302932475
-0.01914635910085448
-0.017674673925015538
-0.0162025367312274
-0.014723273403908013
-0.013248898994991778
-0.011769863343112391
-0.010303664269499246
-0.00882783239791303
-0.007353360937145226
-0.005898744173535739
-0.004343911594587926
-0.003351196693463135
-0.0007494000676900037
0.006448704253955037
7.310686061523519e-06
-0.006445023744328066
0.0015657723501164705
3.389490586869215e-06
-0.001561724301230874
0.0024374264293627323
5.095715991498828e-06
-0.002427380032825721
0.003276138053401531
3.5369907880333784e-06
-0.0032738939473063167
0.004398069725432413
3.3165578088301118e-06
-0.0043898529816234905
0.005489724374640764
7.092810562658869e-06
-0.005482858982585034
0.006592306824385108
6.7169211328821365e-06
-0.006578334320499965
0.007684147915857115
6.650782268025068e-06
-0.007673109699668182
0.008774273796265553
1.0483190273635756e-06
-0.008770972191664797
0.009872631906766238
-2.0244196804186654e-06