# vtk DataFile Version 2.0
Generated Volume Mesh
ASCII
DATASET UNSTRUCTURED_GRID
POINTS 1331 float
0.0 0.0 0.0
20.0 0.0 0.0
20.0 20.0 0.0
0.0 20.0 0.0
0.0 0.0 20.0
20.0 0.0 20.0
20.0 20.0 20.0
0.0 20.0 20.0
1.999999999998378 0.0 0.0
3.999999999993648 0.0 0.0
5.999999999987806 0.0 0.0
7.999999999982034 0.0 0.0
9.999999999984798 0.0 0.0
11.99999999998784 0.0 0.0
13.99999999999088 0.0 0.0
15.99999999999392 0.0 0.0
17.99999999999696 0.0 0.0
20.0 1.999999999998378 0.0
20.0 3.999999999993648 0.0
20.0 5.999999999987806 0.0
20.0 7.999999999982034 0.0
20.0 9.999999999984798 0.0
20.0 11.99999999998784 0.0
20.0 13.99999999999088 0.0
20.0 15.99999999999392 0.0
20.0 17.99999999999696 0.0
18.0 20.0 0.0
15.99999999999999 20.0 0.0
13.99999999999999 20.0 0.0
11.99999999999999 20.0 0.0
9.999999999999993 20.0 0.0
7.999999999999993 20.0 0.0
5.999999999999996 20.0 0.0
3.999999999999996 20.0 0.0
1.999999999999996 20.0 0.0
0.0 18.0 0.0
0.0 15.99999999999999 0.0
0.0 13.99999999999999 0.0
0.0 11.99999999999999 0.0
0.0 9.999999999999993 0.0
0.0 7.999999999999993 0.0
0.0 5.999999999999996 0.0
0.0 3.999999999999996 0.0
0.0 1.999999999999996 0.0
1.999999999998378 0.0 20.0
3.999999999993648 0.0 20.0
5.999999999987806 0.0 20.0
7.999999999982034 0.0 20.0
9.999999999984798 0.0 20.0
11.99999999998784 0.0 20.0
13.99999999999088 0.0 20.0
15.99999999999392 0.0 20.0
17.99999999999696 0.0 20.0
20.0 1.999999999998378 20.0
20.0 3.999999999993648 20.0
20.0 5.999999999987806 20.0
20.0 7.999999999982034 20.0
20.0 9.999999999984798 20.0
20.0 11.99999999998784 20.0
20.0 13.99999999999088 20.0
20.0 15.99999999999392 20.0
20.0 17.99999999999696 20.0
18.0 20.0 20.0
15.99999999999999 20.0 20.0
13.99999999999999 20.0 20.0
11.99999999999999 20.0 20.0
9.999999999999993 20.0 20.0
7.999999999999993 20.0 20.0
5.999999999999996 20.0 20.0
3.999999999999996 20.0 20.0
1.999999999999996 20.0 20.0
0.0 18.0 20.0
0.0 15.99999999999999 20.0
0.0 13.99999999999999 20.0
0.0 11.99999999999999 20.0
0.0 9.999999999999993 20.0
0.0 7.999999999999993 20.0
0.0 5.999999999999996 20.0
0.0 3.999999999999996 20.0
0.0 1.999999999999996 20.0
0.0 0.0 1.999999999998378
0.0 0.0 3.999999999993648
0.0 0.0 5.999999999987806
0.0 0.0 7.999999999982034
0.0 0.0 9.999999999984798
0.0 0.0 11.99999999998784
0.0 0.0 13.99999999999088
0.0 0.0 15.99999999999392
0.0 0.0 17.99999999999696
20.0 0.0 1.999999999998378
20.0 0.0 3.999999999993648
20.0 0.0 5.999999999987806
20.0 0.0 7.999999999982034
20.0 0.0 9.999999999984798
20.0 0.0 11.99999999998784
20.0 0.0 13.99999999999088
20.0 0.0 15.99999999999392
20.0 0.0 17.99999999999696
20.0 20.0 1.999999999998378
20.0 20.0 3.999999999993648
20.0 20.0 5.999999999987806
20.0 20.0 7.999999999982034
20.0 20.0 9.999999999984798
20.0 20.0 11.99999999998784
20.0 20.0 13.99999999999088
20.0 20.0 15.99999999999392
20.0 20.0 17.99999999999696
0.0 20.0 1.999999999998378
0.0 20.0 3.999999999993648
0.0 20.0 5.999999999987806
0.0 20.0 7.999999999982034
0.0 20.0 9.999999999984798
0.0 20.0 11.99999999998784
0.0 20.0 13.99999999999088
0.0 20.0 15.99999999999392
0.0 20.0 17.99999999999696
1.999999999998539 1.999999999999834 0.0
1.999999999998701 3.999999999999362 0.0
1.999999999998863 5.999999999998778 0.0
1.999999999999025 7.999999999998198 0.0
1.999999999999187 9.999999999998474 0.0
1.999999999999349 11.99999999999878 0.0
1.999999999999511 13.99999999999907 0.0
1.999999999999673 15.99999999999939 0.0
1.999999999999835 17.99999999999969 0.0
3.999999999994283 1.999999999999673 0.0
3.999999999994919 3.999999999998727 0.0
3.999999999995552 5.999999999997559 0.0
3.999999999996187 7.999999999996403 0.0
3.999999999996822 9.999999999996954 0.0
3.999999999997456 11.99999999999756 0.0
3.999999999998092 13.99999999999817 0.0
3.999999999998727 15.99999999999878 0.0
3.999999999999362 17.99999999999939 0.0
5.999999999989026 1.999999999999511 0.0
5.999999999990244 3.999999999998092 0.0
5.999999999991463 5.999999999996339 0.0
5.999999999992681 7.999999999994605 0.0
5.999999999993902 9.999999999995433 0.0
5.99999999999512 11.99999999999635 0.0
5.99999999999634 13.99999999999726 0.0
5.999999999997558 15.99999999999817 0.0
5.999999999998778 17.99999999999909 0.0
7.999999999983831 1.999999999999349 0.0
7.999999999985626 3.999999999997457 0.0
7.999999999987422 5.99999999999512 0.0
7.999999999989218 7.999999999992809 0.0
7.999999999991013 9.999999999993914 0.0
7.999999999992808 11.99999999999513 0.0
7.999999999994605 13.99999999999634 0.0
7.999999999996401 15.99999999999756 0.0
7.999999999998197 17.99999999999878 0.0
9.999999999986317 1.999999999999187 0.0
9.999999999987837 3.999999999996822 0.0
9.999999999989354 5.999999999993902 0.0
9.999999999990877 7.999999999991013 0.0
9.999999999992395 9.999999999992395 0.0
9.999999999993916 11.99999999999391 0.0
9.999999999995438 13.99999999999543 0.0
9.999999999996954 15.99999999999696 0.0
9.999999999998474 17.99999999999848 0.0
11.99999999998906 1.999999999999025 0.0
11.99999999999027 3.999999999996188 0.0
11.99999999999149 5.999999999992683 0.0
11.9999999999927 7.999999999989218 0.0
11.99999999999391 9.999999999990878 0.0
11.99999999999513 11.9999999999927 0.0
11.99999999999634 13.99999999999452 0.0
11.99999999999756 15.99999999999635 0.0
11.99999999999877 17.99999999999817 0.0
13.99999999999178 1.999999999998863 0.0
13.9999999999927 3.999999999995553 0.0
13.99999999999361 5.999999999991464 0.0
13.99999999999452 7.999999999987422 0.0
13.99999999999543 9.99999999998936 0.0
13.99999999999635 11.99999999999148 0.0
13.99999999999726 13.99999999999361 0.0
13.99999999999817 15.99999999999574 0.0
13.99999999999907 17.99999999999787 0.0
15.99999999999453 1.999999999998701 0.0
15.99999999999513 3.999999999994917 0.0
15.99999999999574 5.999999999990245 0.0
15.99999999999635 7.999999999985626 0.0
15.99999999999696 9.999999999987837 0.0
15.99999999999757 11.99999999999027 0.0
15.99999999999817 13.9999999999927 0.0
15.99999999999878 15.99999999999514 0.0
15.99999999999939 17.99999999999757 0.0
17.99999999999726 1.999999999998539 0.0
17.99999999999757 3.999999999994283 0.0
17.99999999999787 5.999999999989024 0.0
17.99999999999817 7.99999999998383 0.0
17.99999999999848 9.999999999986317 0.0
17.99999999999878 11.99999999998905 0.0
17.99999999999909 13.99999999999178 0.0
17.9999999999994 15.99999999999453 0.0
17.99999999999969 17.99999999999726 0.0
1.999999999998539 1.999999999999834 20.0
1.999999999998701 3.999999999999362 20.0
1.999999999998863 5.999999999998778 20.0
1.999999999999025 7.999999999998198 20.0
1.999999999999187 9.999999999998474 20.0
1.999999999999349 11.99999999999878 20.0
1.999999999999511 13.99999999999907 20.0
1.999999999999673 15.99999999999939 20.0
1.999999999999835 17.99999999999969 20.0
3.999999999994283 1.999999999999673 20.0
3.999999999994919 3.999999999998727 20.0
3.999999999995552 5.999999999997559 20.0
3.999999999996187 7.999999999996403 20.0
3.999999999996822 9.999999999996954 20.0
3.999999999997456 11.99999999999756 20.0
3.999999999998092 13.99999999999817 20.0
3.999999999998727 15.99999999999878 20.0
3.999999999999362 17.99999999999939 20.0
5.999999999989026 1.999999999999511 20.0
5.999999999990244 3.999999999998092 20.0
5.999999999991463 5.999999999996339 20.0
5.999999999992681 7.999999999994605 20.0
5.999999999993902 9.999999999995433 20.0
5.99999999999512 11.99999999999635 20.0
5.99999999999634 13.99999999999726 20.0
5.999999999997558 15.99999999999817 20.0
5.999999999998778 17.99999999999909 20.0
7.999999999983831 1.999999999999349 20.0
7.999999999985626 3.999999999997457 20.0
7.999999999987422 5.99999999999512 20.0
7.999999999989218 7.999999999992809 20.0
7.999999999991013 9.999999999993914 20.0
7.999999999992808 11.99999999999513 20.0
7.999999999994605 13.99999999999634 20.0
7.999999999996401 15.99999999999756 20.0
7.999999999998197 17.99999999999878 20.0
9.999999999986317 1.999999999999187 20.0
9.999999999987837 3.999999999996822 20.0
9.999999999989354 5.999999999993902 20.0
9.999999999990877 7.999999999991013 20.0
9.999999999992395 9.999999999992395 20.0
9.999999999993916 11.99999999999391 20.0
9.999999999995438 13.99999999999543 20.0
9.999999999996954 15.99999999999696 20.0
9.999999999998474 17.99999999999848 20.0
11.99999999998906 1.999999999999025 20.0
11.99999999999027 3.999999999996188 20.0
11.99999999999149 5.999999999992683 20.0
11.9999999999927 7.999999999989218 20.0
11.99999999999391 9.999999999990878 20.0
11.99999999999513 11.9999999999927 20.0
11.99999999999634 13.99999999999452 20.0
11.99999999999756 15.99999999999635 20.0
11.99999999999877 17.99999999999817 20.0
13.99999999999178 1.999999999998863 20.0
13.9999999999927 3.999999999995553 20.0
13.99999999999361 5.999999999991464 20.0
13.99999999999452 7.999999999987422 20.0
13.99999999999543 9.99999999998936 20.0
13.99999999999635 11.99999999999148 20.0
13.99999999999726 13.99999999999361 20.0
13.99999999999817 15.99999999999574 20.0
13.99999999999907 17.99999999999787 20.0
15.99999999999453 1.999999999998701 20.0
15.99999999999513 3.999999999994917 20.0
15.99999999999574 5.999999999990245 20.0
15.99999999999635 7.999999999985626 20.0
15.99999999999696 9.999999999987837 20.0
15.99999999999757 11.99999999999027 20.0
15.99999999999817 13.9999999999927 20.0
15.99999999999878 15.99999999999514 20.0
15.99999999999939 17.99999999999757 20.0
17.99999999999726 1.999999999998539 20.0
17.99999999999757 3.999999999994283 20.0
17.99999999999787 5.999999999989024 20.0
17.99999999999817 7.99999999998383 20.0
17.99999999999848 9.999999999986317 20.0
17.99999999999878 11.99999999998905 20.0
17.99999999999909 13.99999999999178 20.0
17.9999999999994 15.99999999999453 20.0
17.99999999999969 17.99999999999726 20.0
1.999999999998377 0.0 1.999999999998378
1.999999999998377 0.0 3.999999999993648
1.999999999998378 0.0 5.999999999987807
1.999999999998378 0.0 7.999999999982033
1.999999999998377 0.0 9.999999999984798
1.999999999998378 0.0 11.99999999998784
1.999999999998378 0.0 13.99999999999087
1.999999999998377 0.0 15.99999999999392
1.999999999998378 0.0 17.99999999999696
[...]
POINT_DATA 1331
SCALARS stress11 float
LOOKUP_TABLE default
-0.006937934636198406
-0.006937938519797626
-0.00693795171957845
-0.006937947843312031
0.03276449328240005
0.03276449268361148
0.03276450460805336
0.032764505197746985
-0.02510528799422218
-0.034525864388285754
-0.04207670234472971
-0.04705186750365442
-0.04877528942191431
-0.04705186676795847
-0.042076700903976416
-0.03452586328853613
-0.025105287739222604
-0.05134622810601286
-0.07955797353639582
-0.10021537025164662
-0.11317291449756794
-0.11759347002055165
-0.11317291163663867
-0.10021536458287983
-0.07955796833294926
-0.0513462266947613
-0.025105297968650575
-0.03452586533745716
-0.042076698118847844
-0.04705186141286788
-0.04877528322718877
-0.047051862144513734
-0.04207669956051063
-0.03452586643265931
-0.02510529822063745
-0.051346220294703926
-0.07955796392150205
-0.10021536073691095
-0.11317290793147095
-0.11759346634107715
-0.11317291079001279
-0.1002153663926606
-0.07955796912477808
-0.0513462217088545
0.05362946533165314
0.08032828931433755
0.10971894736456989
0.13276164902934795
0.14148891433055635
0.13276164521369083
0.10971894068592292
0.08032828433226769
0.05362946416437353
0.10068769840864888
0.176091289736803
0.2580684956983532
0.32228921179120107
0.3471503859360041
0.322289197074781
0.25806847041144465
0.17609127143919068
0.10068769482330708
0.05362947733812007
0.08032828663155556
0.10971893266457755
0.13276163000701047
0.14148889665836012
0.13276163381920014
0.10971893934939203
0.080328291617775
0.05362947850670707
0.1006876891117372
0.17609126709305656
0.2580684667282185
0.3222891943210584
0.3471503829518383
0.3222892090343521
0.25806849202086823
0.17609128539118046
0.10068769269355471
0.002896927641302227
0.0036862517715690046
0.0035016121142916745
0.0028044165234746288
0.0015536814218535255
-0.00019944741961808177
-0.0018052103412173892
-0.001625737764470614
0.003300939933637892
0.0028969235536351334
0.0036862472878738117
0.00350160678311795
0.002804410113810718
0.0015536740423272022
-0.00019945519835573577
-0.0018052173247156134
-0.0016257422876151395
0.003300939389873747
0.0028969132869747227
0.0036862377351098985
0.003501595530224222
0.002804396070303028
0.0015536571356733475
-0.00019947374056528133
-0.0018052344063335113
-0.0016257525046512455
0.003300942487669545
0.0028969173797008807
0.003686242219998803
0.0035016008727666303
0.002804402488834512
0.0015536645208271693
-0.00019946598280284888
-0.0018052274252795542
-0.001625747981108816
0.0033009430406423235
-0.04696771316082504
-0.05683266663294262
-0.0658777492682816
-0.07244580272055146
-0.07476859671527336
-0.07244580313312099
-0.06587774944773628
-0.056832666897889794
-0.04696771453302517
-0.02367785564103997
-0.009004283433000637
-0.00040326150440250785
0.0034818234556723837
0.00464730006302716
0.0034818196775177057
-0.0004032687760400222
-0.009004291686210308
-0.023677860313569
-0.01275467287521792
0.0198306426970305
0.03997202671166633
0.050551971230277104
0.05393089866970513
0.05055196504534365
0.039972014575454295
0.01983062927968149
-0.012754679160678961
-0.00815073726263904
0.0343045726473008
0.06111860062472374
0.07536568247166997
0.07994179520341049
0.07536567492024915
0.06111858577189366
0.0343045562655675
-0.008150744461090653
-0.006798820883089807
0.03886122809800599
0.0678667712249888
0.08333340873638807
0.08829645840058606
0.08333340075198153
0.06786675547614866
0.03886121072896717
-0.006798828374402988
-0.00815074216909295
0.03430456261658321
0.06111858686237781
0.07536566656813193
0.07994177861749563
0.07536565901816061
0.06111857201111093
0.03430454622460388
-0.008150749357383802
-0.012754682276579388
0.019830623098386013
0.03997200007728452
0.0505519407044801
0.05393086685688786
0.05055193451656237
0.039971987949542154
0.019830609695560497
-0.01275468856306361
-0.023677866641548917
-0.009004305772521093
-0.0004032907353916926
0.003481790077103142
0.004647265307539783
0.003481786302245382
-0.0004032980116903673
-0.009004314025446547
-0.023677871321353905
-0.0469677186990225
-0.05683267611868814
-0.06587776132755607
-0.07244581635245595
-0.07476861087985753
-0.07244581676434336
-0.06587776151332037
-0.05683267637482459
-0.04696772007417849
0.09874896453226256
0.1523959472031038
0.2241510358065284
0.29082547508301104
0.30343163286312347
0.29082546956755095
0.22415101997785314
0.1523959373974435
0.09874896585762372
0.07874143967234204
0.08564888203636656
0.1391403656139687
0.24247062078302406
0.3183504328053459
0.242470606345762
0.13914035598730834
0.08564888870608911
0.07874144583649922
0.0652041242724124
0.0169156084182589
-0.06737646336705438
0.05130937296254956
0.048498409704791356
0.05130939711870042
-0.06737642110979891
0.016915636382549337
0.0652041336992113
0.0601962221575576
-0.027880571105612262
-0.22681525615041664
-1.0583998398964383
-0.7700750858301433
-1.0583995238783217
-0.22681500927336629
-0.027880544787024064
0.06019623053300904
0.05114003433857149
-0.02055110533910623
-0.3986875373362453
-1.0261183437669767
-10.625497966950322
-1.0261154007696307
-0.39868756011796
-0.0205510771573068
0.0511400458120909
0.06019624037408278
-0.027880519438681972
-0.22681507468750794
-1.0583990661131963
-0.7700716073367744
-1.0583987500984193
-0.22681482781118234
-0.027880493124797567
0.06019624874635099
0.06520415207717178
0.0169156819030718
-0.06737626356348869
0.05130968437680394
0.04849839564573699
0.051309708528719966
-0.06737622131277021
0.016915709857642014
0.06520416149447783
0.07874145956742495
0.08564893235069349
0.13914042660479709
0.24247063147589643
0.31835040057359265
0.24247061704471662
0.13914041696909862
0.08564893901717596
0.07874146572385143
0.09874897238898939
0.1523959618505728
0.22415105314530592
0.29082548585569157
0.3034316441021474
0.2908254803436421
0.2241510373202118
0.15239595203718181
0.09874897370656299
-0.00772552233325996
-0.006102258045473263
-0.008173212934593721
-0.01196562092405884
-0.016574897111922837
-0.02070569024976976
-0.021594692805138038
-0.014564207885996439
0.005798737050838554
-0.011549641506746866
-0.00896776764062679
-0.012304907713200919
-0.01846520141526753
-0.026385522623911584
-0.03442844759371155
-0.03821808248716252
-0.028846858386259555
0.005402960383719346
-0.013256552793848186
-0.010395593067414666
-0.014825870182960443
-0.023225889316279336
-0.03485729940075544
-0.048483332599232654
-0.05830021606627156
-0.04944988095314784
0.0005662480572254935
-0.014159470565473953
-0.011069346107404954
-0.016392367173651223
-0.026579116609468656
-0.04158598797496893
-0.061175552865307736
-0.07854348266876343
-0.07143392485683364
-0.007172782288265012
-0.014455013738148448
-0.011283865294652057
-0.01694313862071764
-0.027852726799770466
-0.044210650219763586
-0.06689106012512364
-0.0873595980025684
-0.0822576923550199
-0.012110895613269876
-0.014159470775283012
-0.011069346327403196
-0.016392367334006508
-0.02657911672891089
-0.04158598792820101
-0.061175551922744376
-0.07854348056832805
-0.07143392105852797
-0.007172780265889855
-0.013256553079685318
-0.010395593256390612
-0.014825870125235951
-0.023225888962429053
-0.03485729834923745
-0.04848333012395756
-0.05830021128224416
-0.0494498753517405
0.0005662508025920943
-0.01154964157547056
-0.00896776751494599
-0.012304907431030188
-0.018465200785044544
-0.02638552140410866
-0.034428445423657195
-0.038218079235946334
-0.028846854872483618
0.005402961520246663
-0.007725522218663627
-0.006102257967427249
-0.008173212823407994
-0.01196562073619134
-0.01657489681366542
-0.020705689853798503
-0.02159469240331191
-0.01456420768533917
0.005798736836993612
-0.018088373589193907
-0.014494072826380489
-0.01894846919049087
-0.027254559301240988
-0.03726297554703706
-0.045977023573414044
-0.04727856392105423
-0.03125956085108328
0.012582660827888503
-0.02673099148506708
-0.020951378169797863
-0.028492848437053908
-0.04249517389041557
-0.0604639005274521
-0.07856664910218569
-0.08677000692705406
-0.06496903271062138
0.01243246444317947
-0.03094234616861513
-0.02404423469977246
-0.03428692812963163
-0.05372449472918106
-0.08071086297763941
-0.11249426858978495
-0.13551428373932595
-0.11522149699226247
0.0016491136124727745
-0.03321103859411778
-0.025510893259138356
-0.03783976249758325
-0.06161498890662642
-0.09686429130636043
-0.14333576305546103
-0.18540717323139688
-0.1699558713926308
-0.01728913061805315
-0.03395371529393287
-0.02597829463729795
-0.03908547729417933
-0.06460168478020023
-0.10317076289913985
-0.1572205728446079
-0.20731752053461605
-0.1970368013571715
-0.029408003022410867
-0.03321103819075688
-0.025510893016189584
-0.037839761839222774
-0.06161498737333204
-0.09686428809993686
-0.14333575618945815
-0.18540716181973949
-0.16995585731422125
-0.017289124496585373
-0.030942345179880704
-0.0240442339868423
-0.034286926530512574
-0.05372449142396363
-0.08071085656388277
-0.1124942569661016
-0.13551426568824354
-0.11522147785535708
0.0016491193120486969
-0.026730990043972724
-0.020951377012465855
-0.02849284651472317
-0.042495170583947584
-0.06046389506923333
-0.07856664073062802
-0.08676999583360612
-0.06496902217702427
0.012432465893880362
-0.01808837301564381
-0.014494072360889731
-0.018948468565099574
-0.02725455837969548
-0.03726297428715952
-0.04597702203619747
-0.04727856240788242
-0.03125955998206109
0.012582660210057384
-0.007725530130358038
-0.006102266716084159
-0.008173223587505163
-0.01196563427856745
-0.01657491299783942
-0.02070570733843624
-0.021594708157749665
-0.014564216866688184
0.005798739526483132
-0.011549644383364921
-0.008967773143297109
-0.012304914930609812
-0.01846520993683498
-0.026385531580899624
-0.03442845533470518
-0.03821808708283925
-0.028846859187865448
0.005402960266110313
-0.013256551570634656
-0.010395596476797664
-0.014825875049012893
-0.023225894252021817
-0.03485730248286245
-0.048483331139777874
-0.05830020809287362
-0.04944987041730542
0.0005662478279759853
-0.014159466680482069
-0.011069347876045299
-0.01639237043583819
-0.0265791190747251
-0.04158598699403626
-0.06117554469435049
-0.07854346571778592
-0.07143390425011376
-0.007172780653590394
-0.014455008759996182
-0.011283866223922537
-0.01694314102784239
-0.027852728010322264
-0.044210647234808664
-0.0668910494903527
-0.08735957771663738
-0.08225766916655135
-0.0121108931788148
-0.014159466459261694
-0.01106934764594314
-0.016392370273976553
-0.02657911895950349
-0.04158598703753569
-0.06117554564151817
-0.07854346782026767
-0.07143390804971261
-0.00717278268128041
-0.013256551291561891
-0.010395596290493359
-0.014825875106595277
-0.023225894611499598
-0.03485730352969085
-0.048483333614967705
-0.05830021286803344
-0.04944987602436868
0.0005662450756460657
-0.011549644319643448
-0.008967773264146217
-0.012304915214542689
-0.01846521056046413
-0.026385532797348787
-0.03442845750504375
-0.03821809033530599
-0.02884686270419934
0.005402959123443907
-0.007725530240747958
-0.006102266800439793
-0.008173223688572762
-0.011965634459102148
-0.016574913288934567
-0.02070570772815472
-0.021594708560087383
-0.014564217066549645
0.005798739750161985
-0.0180883690071596
-0.0144940661833175
-0.01894846090158353
-0.027254549198801215
-0.037262964071260285
-0.04597701192415116
-0.047278554149329466
-0.031259555481028656
0.012582660175553428
-0.026730987948724305
-0.020951371216028747
-0.028492838726833725
-0.042495161289480166
-0.060463885208832835
-0.07856663182508328
-0.08676998951000314
-0.06496901911731356
0.012432467909604838
-0.03094234455318201
-0.024044228208254026
-0.0342869183032235
-0.05372448148568765
-0.0807108462583983
-0.11249424845482281
-0.13551426129686206
-0.11522147761525048
0.0016491219118961453
-0.03321103839289208
-0.025510887223845202
-0.03783975322369315
-0.06161497685206996
-0.09686427729229763
-0.14333574797740312
-0.18540715986353007
-0.169955863739915
-0.017289127167202878
-0.033953715759480474
-0.025978288826763674
-0.03908546852107975
-0.06460167399404781
-0.1031707519067595
-0.1572205645423992
-0.20731752005610815
-0.1970368133439706
-0.029408011943473866
-0.03321103879397924
-0.025510887462473875
-0.03783975387830196
-0.061614978375814644
-0.0968642804978117
-0.1433357548451113
-0.18540717127723383
-0.16995587782071198
-0.0172891332904328
-0.03094234553196884
-0.02404422892095681
-0.034286919909732205
-0.053724484805456996
-0.08071085267897615
-0.11249426006838803
-0.13551427934578442
-0.1152214967545433
0.0016491162193119635
-0.02673098939214924
-0.020951372375407118
-0.0284928406384779
-0.04249516460788527
-0.060463890673759124
-0.07856664019038817
-0.08677000059344664
-0.0649690296480685
0.012432466455777558
-0.01808836958645088
-0.014494066664894945
-0.018948461519642024
-0.0272545501110244
-0.037262965324543984
-0.04597701346631311
-0.047278555668299305
-0.03125955635852051
0.012582660795374068
-0.022272288813724117
-0.022382859274614475
-0.02844875932339619
-0.03744364435016223
-0.04714957778543294
-0.05409902754860241
-0.0524838397853955
-0.033737844131849215
0.009955842339877563
-0.02805637779516701
-0.02750202618426556
-0.03686709190213833
-0.0504517647503917
-0.0658952218864215
-0.0794610568761982
-0.08292622493587487
-0.061508080012288247
0.007729363997441396
-0.030070430449882224
-0.0306973099546326
-0.04280888419305029
-0.06112590682789687
-0.0837590188058357
-0.10761475814229016
-0.12396369033410792
-0.10665084857254215
-0.013395583773274211
-0.031209831346586725
-0.032467280410060084
-0.0469566444951397
-0.06922760606335032
-0.09838757167062795
-0.1339694489525982
-0.1686456675932959
-0.16829110776262723
-0.04123559535480581
-0.031600689696119844
-0.033074157200246646
-0.0484849147925388
-0.07234098801188793
-0.10448868023900104
-0.1443016082188251
-0.19519077797519913
-0.19600317091652641
-0.06343213385133595
-0.031209832986235142
-0.032467281730703235
-0.046956645922932694
-0.06922760826182639
-0.09838757509555762
-0.1339694531055784
-0.16864566841502437
-0.16829110275216408
-0.04123558748722189
-0.030070432745048947
-0.030697311283518047
-0.04280888509020997
-0.06112590791462935
-0.0837590198733551
-0.1076147578007749
-0.12396368482518483
-0.10665083630374284
-0.013395572482295393
-0.028056379139059118
-0.027502026204672347
-0.036867091614738
-0.050451764056617776
-0.06589522049199559
-0.07946105406216475
-0.08292621986566928
-0.06150807303924921
0.0077293685577046745
-0.022272289402394563
-0.02238285935550266
-0.02844875959357296
-0.0374436448980191
-0.04714957865797942
-0.05409902877232753
-0.05248384121341587
-0.033737845284179
0.009955843081002058
-0.015668378577686326
-0.017938962751145482
-0.024135927676809388
-0.03211422465170699
-0.04050887480013898
-0.04699781370226219
-0.0472290221368894
-0.03434981797533965
0.002228641256067476
-0.017312159808909655
-0.020135812445687407
-0.029537188417350535
-0.040980225934220016
-0.05340132905769224
-0.0647339356349903
-0.07073780385121609
-0.060487636240509346
-0.014479751899898474
-0.01617944578714514
-0.021797642562148667
-0.033811951520419825
-0.04935560659515659
-0.06761323409398301
-0.08855541740069839
-0.10786273469886964
-0.11352689464456489
-0.045072915878222375
-0.015377156865326924
-0.022796695350223217
-0.037295113436186966
-0.05651454419006541
-0.0810861287067155
-0.11200067437260941
-0.15675987717190765
-0.20930162413282005
-0.16997928282540897
-0.0151293564607613
-0.02316918145999125
-0.038661612796261124
-0.05946574518929992
-0.0869816428885315
-0.12402850934461185
-0.17447242240672267
-0.32354982879053296
-0.2302709114870254
-0.015377160293098768
-0.0227966981212262
-0.037295116725715616
-0.05651454959871671
-0.08108613794354369
-0.11200068938194363
-0.15675989563828807
-0.20930162002389352
-0.1699792595285885
-0.01617945135097898
-0.021797646131801685
-0.03381195516953994
-0.049355612195256526
-0.06761324269450597
-0.08855542850153597
-0.10786274326335388
-0.1135268831983467
-0.045072888711672476
-0.017312164330917312
-0.020135814383422712
-0.029537190617020315
-0.04098022893873576
-0.05340133296408567
-0.0647339396561506
-0.07073780534034313
-0.06048763166694471
-0.014479737886290422
-0.015668380339889154
-0.017938963676499498
-0.02413592909243789
-0.03211422685905063
-0.04050887790702973
-0.04699781762809607
-0.04722902630129511
-0.03434982072269577
0.0022286428251732104
-0.008536951703206341
-0.01511159755960989
-0.021251522019497315
-0.027918533118167943
-0.0342334576418466
-0.03855087001591073
-0.03981006874784043
-0.03245527428134665
-0.011364744318854036
-0.003477659925408716
-0.013299072320819505
-0.022210834865688867
-0.030420191155656084
-0.03722128735677188
-0.04211802454642566
-0.04339521070022556
-0.04694014118172163
-0.029804789309025637
0.0019640658481989703
-0.013368475200365992
-0.02462216643357351
-0.036037642759481514
-0.046986621626217584
-0.05572274867103033
-0.06705381609401684
-0.07075676578682533
-0.1146194635546749
0.005304862289733592
-0.013603967293761343
-0.027379477093631976
-0.04216972090478066
-0.0592129690143679
-0.07851567605484888
-0.0982257013781691
-0.16538823713091233
-0.19222941561156404
0.006394858063117681
-0.013758161534326518
-0.02857034365928257
-0.0450006341600897
-0.06521005171055094
-0.09325221386933435
-0.13014113802142901
-0.1794275936615577
-1.0028147454747227
0.0053048573957426015
-0.013603971096529222
-0.027379481807372485
-0.0421697289453391
-0.05921298375420747
-0.0785157028243475
-0.09822575373607378
-0.16538830602490862
-0.19222930515024927
0.001964057532973129
-0.013368480319002174
-0.024622172165550182
-0.03603765219003208
-0.046986637310453716
-0.055722773974196116
-0.06705384829467675
-0.07075678667496277
-0.11461941979507628
-0.003477667074434976
-0.013299075498480306
-0.022210838836997482
-0.030420197151499906
-0.037221296393283865
-0.04211803633802447
-0.04339522182408473
-0.046940141261131885
-0.02980476962869716
-0.008536953906116196
-0.015111598571792229
-0.021251523779540094
-0.027918536065101307
-0.034233462057102315
-0.03855087591972506
-0.03981007472117426
-0.03245527790028291
-0.011364740129778284
-0.0041885348276196055
-0.012857540066050888
-0.019357443477616698
-0.024861255217416556
-0.02885601862533349
-0.03084439984365872
-0.03254993192089728
-0.03546974452879681
-0.02218996661522965
0.005498784259685863
-0.00792285446308938
-0.017135124086763653
-0.02262100002428724
-0.024304290439033593
-0.02030200265937765
-0.015493863281818676
-0.029014779104699073
-0.06892962381749612
0.014283569630578086
-0.006226477268967301
-0.0178252752605772
-0.025824062727593855
-0.030554409734349974
-0.028534040946283312
-0.010760810620951133
-0.006583574644025703
-0.0661095895425774
0.01947946484514773
-0.005653700480962698
-0.019977529007235262
-0.031367404046363845
-0.04290426039008821
-0.05730782502516263
-0.06564388246940212
-0.039468001915253126
-0.16974730097035717
0.02116946355195637
-0.005570138547398074
-0.021061167608138476
-0.034171314741740844
-0.05058046968397889
-0.07708982928505748
-0.1510175877265283
-0.18266337367097663
0.2084793716840352
0.019479459044561054
-0.005653704894712064
-0.01997753457089857
-0.0313674138136264
-0.042904278586092914
-0.057307860813125444
-0.06564395305298376
-0.03946821775855369
-0.16974764205551196
0.01428355959376404
-0.006226483379208503
-0.017825282300805156
-0.025824074726074286
-0.030554430777726793
-0.028534076253691865
-0.010760871892898649
-0.006583628260443675
-0.06610957821541774
0.005498775410131884
-0.007922858548653267
-0.01713512929407557
-0.022621008282385446
-0.024304303487014067
-0.02030202208405285
-0.015493883561759958
-0.029014776953431465
-0.06892956386417382
-0.004188537228301925
-0.012857541120752103
-0.019357445434025067
-0.024861258694272692
-0.028856024167282612
-0.030844407501234627
-0.03254993911531301
-0.03546974476776654
-0.022189956361472696
-0.0027249764254962533
-0.012017290159823599
-0.018628977995840998
-0.023697593632763303
-0.026826503440473007
-0.027066580171472218
-0.03225019675165851
-0.036767615747300156
-0.02988909324791615
0.008541466844415313
-0.005931718384102128
-0.015244072367814748
-0.01975293427629722
-0.019518183397359598
-0.012511214893273392
0.0014787761114218034
-0.047223406928368045
-0.08590193642181987