# vtk DataFile Version 2.0
Generated Volume Mesh
ASCII
DATASET UNSTRUCTURED_GRID
POINTS 363 float
-10.0 -10.0 0.0
10.0 -10.0 0.0
10.0 10.0 0.0
-10.0 10.0 0.0
-7.999999999997542 -10.0 0.0
-6.000000000001744 -10.0 0.0
-4.000000000008165 -10.0 0.0
-2.000000000014513 -10.0 0.0
-1.232614010859834e-11 -10.0 0.0
1.999999999990138 -10.0 0.0
3.999999999992603 -10.0 0.0
5.999999999995069 -10.0 0.0
7.999999999997534 -10.0 0.0
10.0 -7.999999999997542 0.0
10.0 -6.000000000001744 0.0
10.0 -4.000000000008165 0.0
10.0 -2.000000000014513 0.0
10.0 -1.232614010859834e-11 0.0
10.0 1.999999999990138 0.0
10.0 3.999999999992603 0.0
10.0 5.999999999995069 0.0
10.0 7.999999999997534 0.0
7.999999999997542 10.0 0.0
6.000000000001744 10.0 0.0
4.000000000008165 10.0 0.0
2.000000000014513 10.0 0.0
1.232614010859834e-11 10.0 0.0
-1.999999999990138 10.0 0.0
-3.999999999992603 10.0 0.0
-5.999999999995069 10.0 0.0
-7.999999999997534 10.0 0.0
-10.0 7.999999999997542 0.0
-10.0 6.000000000001744 0.0
-10.0 4.000000000008165 0.0
-10.0 2.000000000014513 0.0
-10.0 1.232614010859834e-11 0.0
-10.0 -1.999999999990138 0.0
-10.0 -3.999999999992603 0.0
-10.0 -5.999999999995069 0.0
-10.0 -7.999999999997534 0.0
-7.99999999999754 -7.999999999997536 0.0
-7.99999999999754 -5.999999999995737 0.0
-7.999999999997538 -3.999999999994159 0.0
-7.999999999997538 -1.999999999992574 0.0
-7.999999999997538 9.86055681551079e-12 0.0
-7.999999999997538 2.000000000012074 0.0
-7.999999999997536 4.000000000006609 0.0
-7.999999999997534 6.000000000001079 0.0
-7.999999999997536 7.999999999997542 0.0
-6.000000000001078 -7.999999999997536 0.0
-6.000000000000409 -5.999999999996401 0.0
-5.999999999999742 -3.999999999995715 0.0
-5.999999999999075 -1.999999999995012 0.0
-5.999999999998407 7.395861700842943e-12 0.0
-5.999999999997739 2.000000000009637 0.0
-5.999999999997071 4.000000000005052 0.0
-5.999999999996403 6.000000000000409 0.0
-5.999999999995736 7.999999999997542 0.0
-4.000000000006611 -7.999999999997537 0.0
-4.000000000005052 -5.999999999997071 0.0
-4.000000000003497 -3.999999999997272 0.0
-4.000000000001941 -1.99999999999745 0.0
-4.000000000000384 4.930278407755395e-12 0.0
-3.999999999998828 2.0000000000072 0.0
-3.999999999997272 4.000000000003497 0.0
-3.999999999995715 5.999999999999742 0.0
-3.99999999999416 7.999999999997538 0.0
-2.000000000012075 -7.999999999997537 0.0
-2.000000000009637 -5.99999999999774 0.0
-2.0000000000072 -3.999999999998828 0.0
-2.000000000004762 -1.999999999999888 0.0
-2.000000000002325 2.466027382297398e-12 0.0
-1.999999999999886 2.000000000004761 0.0
-1.99999999999745 4.000000000001941 0.0
-1.999999999995012 5.999999999999075 0.0
-1.999999999992574 7.999999999997538 0.0
-9.860912086875634e-12 -7.999999999997537 0.0
-7.395684065157038e-12 -5.999999999998407 0.0
-4.930456043439808e-12 -4.000000000000384 0.0
-2.465228021722533e-12 -2.000000000002326 0.0
0.0 0.0 0.0
2.465228021722532e-12 2.000000000002325 0.0
4.930456043439808e-12 4.000000000000384 0.0
7.395684065157038e-12 5.999999999998407 0.0
9.860912086875634e-12 7.999999999997538 0.0
1.999999999992574 -7.999999999997535 0.0
1.999999999995011 -5.999999999999075 0.0
1.99999999999745 -4.00000000000194 0.0
1.999999999999887 -2.000000000004762 0.0
2.000000000002325 -2.465361248482623e-12 0.0
2.000000000004762 1.999999999999887 0.0
2.0000000000072 3.999999999998828 0.0
2.000000000009638 5.999999999997739 0.0
2.000000000012074 7.999999999997538 0.0
3.999999999994159 -7.999999999997539 0.0
3.999999999995716 -5.999999999999742 0.0
3.999999999997272 -4.000000000003497 0.0
3.999999999998828 -2.000000000007201 0.0
4.000000000000384 -4.930278407755395e-12 0.0
4.00000000000194 1.99999999999745 0.0
4.000000000003497 3.999999999997272 0.0
4.000000000005052 5.999999999997071 0.0
4.000000000006609 7.999999999997536 0.0
5.999999999995739 -7.99999999999754 0.0
5.999999999996403 -6.000000000000409 0.0
5.999999999997071 -4.000000000005052 0.0
5.999999999997739 -2.000000000009638 0.0
5.999999999998407 -7.395861700842943e-12 0.0
5.999999999999075 1.999999999995011 0.0
5.999999999999742 3.999999999995715 0.0
6.000000000000409 5.999999999996403 0.0
6.00000000000108 7.999999999997536 0.0
7.999999999997536 -7.99999999999754 0.0
7.999999999997536 -6.00000000000108 0.0
7.999999999997537 -4.000000000006608 0.0
7.999999999997537 -2.000000000012075 0.0
7.999999999997539 -9.86055681551079e-12 0.0
7.999999999997537 1.999999999992574 0.0
7.999999999997539 3.99999999999416 0.0
7.99999999999754 5.999999999995736 0.0
7.999999999997542 7.999999999997534 0.0
-10.0 -10.0 0.1
10.0 -10.0 0.1
10.0 10.0 0.1
-10.0 10.0 0.1
-7.999999999997542 -10.0 0.1
-6.000000000001744 -10.0 0.1
-4.000000000008165 -10.0 0.1
-2.000000000014513 -10.0 0.1
-1.232614010859834e-11 -10.0 0.1
1.999999999990138 -10.0 0.1
3.999999999992603 -10.0 0.1
5.999999999995069 -10.0 0.1
7.999999999997534 -10.0 0.1
10.0 -7.999999999997542 0.1
10.0 -6.000000000001744 0.1
10.0 -4.000000000008165 0.1
10.0 -2.000000000014513 0.1
10.0 -1.232614010859834e-11 0.1
10.0 1.999999999990138 0.1
10.0 3.999999999992603 0.1
10.0 5.999999999995069 0.1
10.0 7.999999999997534 0.1
7.999999999997542 10.0 0.1
6.000000000001744 10.0 0.1
4.000000000008165 10.0 0.1
2.000000000014513 10.0 0.1
1.232614010859834e-11 10.0 0.1
-1.999999999990138 10.0 0.1
-3.999999999992603 10.0 0.1
-5.999999999995069 10.0 0.1
-7.999999999997534 10.0 0.1
-10.0 7.999999999997542 0.1
-10.0 6.000000000001744 0.1
-10.0 4.000000000008165 0.1
-10.0 2.000000000014513 0.1
-10.0 1.232614010859834e-11 0.1
-10.0 -1.999999999990138 0.1
-10.0 -3.999999999992603 0.1
-10.0 -5.999999999995069 0.1
-10.0 -7.999999999997534 0.1
-7.99999999999754 -7.999999999997536 0.1
-7.99999999999754 -5.999999999995737 0.1
-7.999999999997538 -3.999999999994159 0.1
-7.999999999997538 -1.999999999992574 0.1
-7.999999999997538 9.86055681551079e-12 0.1
-7.999999999997538 2.000000000012074 0.1
-7.999999999997536 4.000000000006609 0.1
-7.999999999997534 6.000000000001079 0.1
-7.999999999997536 7.999999999997542 0.1
-6.000000000001078 -7.999999999997536 0.1
-6.000000000000409 -5.999999999996401 0.1
-5.999999999999742 -3.999999999995715 0.1
-5.999999999999075 -1.999999999995012 0.1
-5.999999999998407 7.395861700842943e-12 0.1
-5.999999999997739 2.000000000009637 0.1
-5.999999999997071 4.000000000005052 0.1
-5.999999999996403 6.000000000000409 0.1
-5.999999999995736 7.999999999997542 0.1
-4.000000000006611 -7.999999999997537 0.1
-4.000000000005052 -5.999999999997071 0.1
-4.000000000003497 -3.999999999997272 0.1
-4.000000000001941 -1.99999999999745 0.1
-4.000000000000384 4.930278407755395e-12 0.1
-3.999999999998828 2.0000000000072 0.1
-3.999999999997272 4.000000000003497 0.1
-3.999999999995715 5.999999999999742 0.1
-3.99999999999416 7.999999999997538 0.1
-2.000000000012075 -7.999999999997537 0.1
-2.000000000009637 -5.99999999999774 0.1
-2.0000000000072 -3.999999999998828 0.1
-2.000000000004762 -1.999999999999888 0.1
-2.000000000002325 2.466027382297398e-12 0.1
-1.999999999999886 2.000000000004761 0.1
-1.99999999999745 4.000000000001941 0.1
-1.999999999995012 5.999999999999075 0.1
-1.999999999992574 7.999999999997538 0.1
-9.860912086875634e-12 -7.999999999997537 0.1
-7.395684065157038e-12 -5.999999999998407 0.1
-4.930456043439808e-12 -4.000000000000384 0.1
-2.465228021722533e-12 -2.000000000002326 0.1
0.0 0.0 0.1
2.465228021722532e-12 2.000000000002325 0.1
4.930456043439808e-12 4.000000000000384 0.1
7.395684065157038e-12 5.999999999998407 0.1
9.860912086875634e-12 7.999999999997538 0.1
1.999999999992574 -7.999999999997535 0.1
1.999999999995011 -5.999999999999075 0.1
1.99999999999745 -4.00000000000194 0.1
1.999999999999887 -2.000000000004762 0.1
2.000000000002325 -2.465361248482623e-12 0.1
2.000000000004762 1.999999999999887 0.1
2.0000000000072 3.999999999998828 0.1
2.000000000009638 5.999999999997739 0.1
2.000000000012074 7.999999999997538 0.1
3.999999999994159 -7.999999999997539 0.1
3.999999999995716 -5.999999999999742 0.1
3.999999999997272 -4.000000000003497 0.1
3.999999999998828 -2.000000000007201 0.1
4.000000000000384 -4.930278407755395e-12 0.1
4.00000000000194 1.99999999999745 0.1
4.000000000003497 3.999999999997272 0.1
4.000000000005052 5.999999999997071 0.1
4.000000000006609 7.999999999997536 0.1
5.999999999995739 -7.99999999999754 0.1
5.999999999996403 -6.000000000000409 0.1
5.999999999997071 -4.000000000005052 0.1
5.999999999997739 -2.000000000009638 0.1
5.999999999998407 -7.395861700842943e-12 0.1
5.999999999999075 1.999999999995011 0.1
5.999999999999742 3.999999999995715 0.1
6.000000000000409 5.999999999996403 0.1
6.00000000000108 7.999999999997536 0.1
7.999999999997536 -7.99999999999754 0.1
7.999999999997536 -6.00000000000108 0.1
7.999999999997537 -4.000000000006608 0.1
7.999999999997537 -2.000000000012075 0.1
7.999999999997539 -9.86055681551079e-12 0.1
7.999999999997537 1.999999999992574 0.1
7.999999999997539 3.99999999999416 0.1
7.99999999999754 5.999999999995736 0.1
7.999999999997542 7.999999999997534 0.1
-10.0 -10.0 0.04999999999986855
10.0 -10.0 0.04999999999986855
-7.999999999997542 -10.0 0.04999999999986855
-6.000000000001744 -10.0 0.04999999999986855
-4.000000000008164 -10.0 0.04999999999986855
-2.000000000014513 -10.0 0.04999999999986855
-1.232614010859834e-11 -10.0 0.04999999999986855
1.999999999990137 -10.0 0.04999999999986855
3.999999999992603 -10.0 0.04999999999986855
5.999999999995069 -10.0 0.04999999999986855
7.999999999997534 -10.0 0.04999999999986855
10.0 10.0 0.04999999999986855
10.0 -7.999999999997542 0.04999999999986855
10.0 -6.000000000001744 0.04999999999986855
10.0 -4.000000000008164 0.04999999999986855
10.0 -2.000000000014513 0.04999999999986855
10.0 -1.232614010859834e-11 0.04999999999986855
10.0 1.999999999990137 0.04999999999986855
10.0 3.999999999992603 0.04999999999986855
10.0 5.999999999995069 0.04999999999986855
10.0 7.999999999997534 0.04999999999986855
-10.0 10.0 0.04999999999986855
7.999999999997542 10.0 0.04999999999986855
6.000000000001744 10.0 0.04999999999986855
4.000000000008164 10.0 0.04999999999986855
[...]
POINT_DATA 363
SCALARS stress11 float
LOOKUP_TABLE default
-21.75608920038212
-21.75603572174441
-21.756107282482844
-21.756076584686525
-27.60020003351383
-44.74928062269464
-67.03956494329032
-83.82323028682731
-90.92994227807503
-83.82328501879238
-67.03959851025138
-44.74921977799386
-27.600194997852668
-31.949330415809527
-57.40661477850517
-88.38666264258791
-111.40861248399597
-120.7781461327395
-111.40865639731055
-88.38670272103627
-57.406606351956725
-31.9493374095764
-27.6001760370782
-44.7492431710707
-67.03956150493468
-83.8232191313873
-90.92996676050825
-83.82324087392772
-67.03960773238214
-44.74924729630584
-27.600212124118116
-31.949363184859976
-57.4066378029529
-88.38669869385194
-111.40864826529287
-120.77811503573321
-111.40863309823908
-88.38670407945756
-57.40662340680137
-31.949373682495207
-77.4946683445014
-124.70016449084505
-205.5125353533076
-267.8245633279439
-293.9454206189839
-267.8246339952457
-205.51251378667075
-124.7001422016765
-77.4947460446856
-114.31848436186556
-33.67496519826818
-17.84917198785115
-36.831659087736625
-38.00549343251623
-36.83169465500396
-17.849186405423097
-33.67497677222127
-114.31844515487319
-184.00472291139886
-5.515718841576017
147.8373352549388
228.19139410427306
193.89716436335584
228.19134269596543
147.8373618350597
-5.515714257024229
-184.00471872737398
-238.35396916070022
-13.735854124766774
242.84423498116666
574.0128074787208
768.00067195663
574.0128029927728
242.844300163968
-13.735869429656304
-238.35396067955298
-261.58804196410347
-11.433258990524337
218.41657256620238
777.6925199513207
957.9745953066158
777.6924788422184
218.4165077667567
-11.433292129426263
-261.5879789754981
-238.35403450316517
-13.735837104788516
242.84421434690012
574.0128167795483
768.000716546725
574.0128659185139
242.84426441820688
-13.735874092992162
-238.35393831619876
-184.0047943344689
-5.515680100012105
147.83740749693243
228.19136316952063
193.89718373300275
228.19141526467865
147.8373279471416
-5.515720725641586
-184.00477224832866
-114.3185062527773
-33.67497711098986
-17.849171863519587
-36.83167015842628
-38.00553838699125
-36.83163918601349
-17.849208886618726
-33.67495779207093
-114.31848900853947
-77.494745082804
-124.70019280479755
-205.51251081586815
-267.82460910920054
-293.94538562133675
-267.824637031008
-205.51253081523464
-124.70016178254446
-77.49466452102934
21.740136679261923
21.74012176389806
21.740177856405353
21.74011208792217
27.57507725211326
44.709765285486355
66.98572982347105
83.75581735617016
90.85339762817603
83.75584160606377
66.9856918429723
44.709793578716926
27.575046718819067
31.896607557719108
57.31618372909725
88.25743538088864
111.23726125940448
120.59115985414246
111.23733293166151
88.25745772375376
57.31616181049321
31.89654301147675
27.575081336784933
44.70981635725184
66.9857058164489
83.75576756952796
90.85343969322275
83.75589989236323
66.98571935144719
44.709860655188095
27.57500324829016
31.896573882433586
57.31618434423581
88.2574975938769
111.23735373385716
120.59116786823142
111.2372825620696
88.25746479770169
57.31612682028208
31.89658020355273
77.44981184822973
124.6326049938798
205.40517235023435
267.68399974063504
293.69757739128545
267.684012774087
205.4051819642773
124.63259685470257
77.44988126424141
114.28465196804609
33.60431529255584
17.791849124245346
36.58159670588793
38.02668081986485
36.581624222686514
17.791874270653352
33.60432374943048
114.28458728612168
183.9811803405173
5.517350655863993
-147.97396337467944
-227.97272760543274
-196.1653933279449
-227.97266161127482
-147.97400029416895
5.517338601290248
183.9812089225161
238.3540081534302
13.718847482057754
-242.55119228869444
-574.1957120163715
-763.7599764163024
-574.1957449474721
-242.55124798469478
13.71885026129894
238.35395318514202
261.5420528241666
11.665442082099617
-219.40875553089427
-773.4404113958008
-975.355135787453
-773.440330659796
-219.40873915079283
11.66549377742922
261.54202433893806
238.3540462757228
13.718833525956143
-242.551185593009
-574.195718016068
-763.7600047604647
-574.1958027273067
-242.55120851658285
13.718890815449413
238.35395656104083
183.9812370153959
5.517304191831499
-147.97399420005968
-227.97272805211833
-196.16540987353073
-227.97273335407954
-147.97393461485626
5.517329673864879
183.98121870690375
114.28465076751309
33.6043126861332
17.791879013180733
36.58161160669988
38.02669091260759
36.581575694086496
17.79187110668863
33.60436779819429
114.2846385203884
77.44986586441519
124.63265450263862
205.40511978999712
267.68399251054507
293.69751373893814
267.68404863521573
205.4051499873749
124.63260856583656
77.44980037217465
-0.007964061107486486
-0.007944771321490407
-0.012556029367260635
-0.019756713300012052
-0.02692208660300821
-0.03372105036396533
-0.038262660964392126
-0.033735355362296104
-0.02695725834928453
-0.01971227885223925
-0.012569079524837434
-0.007952966254379135
-0.02635947917588055
-0.04521471873158589
-0.06461681885411963
-0.08569664135575294
-0.0934541413153056
-0.08568225434282795
-0.06462576487683691
-0.045221675783977844
-0.026394502936454955
-0.007969968020915985
-0.012543084390927106
-0.01971288089407608
-0.026932079519610852
-0.03374008685932495
-0.03825409125420265
-0.0336846019490622
-0.026948647224344313
-0.019692712754476815
-0.012598440516740084
-0.02639222180005163
-0.04522609198465943
-0.06460417702328414
-0.08566831855569035
-0.09343412041198462
-0.08569532353430986
-0.06462299451231956
-0.04524692054837942
-0.026393956621177495
-0.02242399612441659
-0.033770722802728415
-0.05367811943870038
-0.0702475659782067
-0.12416867562569678
-0.07027588604250923
-0.053662967518903315
-0.033763190847821534
-0.022428410535212606
-0.016906808014027774
-0.035334215266630054
-0.028603775543160737
-0.12516973330639303
0.011197390034794807
-0.1251735610421747
-0.028598681557923555
-0.03533543861703947
-0.016919043730013072
-0.011769278789870441
0.0008700289763510227
-0.06844076031120494
0.1100200520013459
-1.1365190888755023
0.11002698354423046
-0.0684457034803927
0.0008666177745908499
-0.011753143917303532
3.860343713313341e-05
-0.0085918796248734
0.14691764838062227
-0.09241981693776324
2.1253954838612117
-0.09243823977885768
0.14692236518021673
-0.008597848122008145
1.631118357181549e-05
-0.02312892791815102
0.11646924552042037
-0.4978374649072066
2.1307532702339813
-8.70245513948612
2.1307724815560505
-0.4978613534476608
0.11647837236523628
-0.023112705792300403
2.6115973014384508e-05
-0.008590030192863196
0.14691091608256102
-0.0924181928858161
2.125403114303481
-0.0924355733441189
0.14692404912784696
-0.008580448804423213
2.8992886655032635e-05
-0.01177634351188317
0.0008663234766572714
-0.06842031585983932
0.11000474344473332
-1.1365178003325127
0.11002777609974146
-0.06842958185006864
0.000858422223245725
-0.011774415645049885
-0.01691858103731647
-0.03534100065007806
-0.028588797023985535
-0.1251675479579717
0.011180663772393018
-0.12516959384083748
-0.028610585286514834
-0.03530486868112348
-0.01691595569718629
-0.022434430371504277
-0.03375966561725363
-0.053691581764724106
-0.07027413812465966
-0.12418219051323831
-0.07025975637952797
-0.05368667107541114
-0.03376738262886647
-0.022427533083828166
SCALARS stress22 float
LOOKUP_TABLE default
-21.7560881980462
-21.75603655714076
-21.75610748181134
-21.756077134865336
-31.94936159159988
-57.406708478578366
-88.3866953428369
-111.40861151297577
-120.77806740649976
-111.40866663097404
-88.38672625063919
-57.40664536366239
-31.94935681554489
-27.600169880199246
-44.74918902141508
-67.03953549778089
-83.82323035650188
-90.93002118475852
-83.82327478399384
-67.03957521304255
-44.74918042427453
-27.60017684462946
-31.94933746221068
-57.406670050593675
-88.38668944782694
-111.40860037357197
-120.77809238943155
-111.40862345171627
-88.38673460599966
-57.40667315211613
-31.949372540577315
-27.60020286985673
-44.74921072483994
-67.03957040794194
-83.82326394645497
-90.92999008100014
-83.82325100316666
-67.03957627492491
-44.74919690017123
-27.60021403688006
-77.49466770142317
-114.31848606467247
-184.00475021032616
-238.35396580421366
-261.5880370817613
-238.3540361209307
-184.00472936988808
-114.31846192595549
-77.49474656040547
-124.70016404555645
-33.67496441118419
-5.515702006523497
-13.735843387723435
-11.433218421880156
-13.735878383973613
-5.515716092311777
-33.674976704409346
-124.7001241100952
-205.5125069731148
-17.84918851859402
147.83733613794902
242.84427828760818
218.41650281986222
242.84422707126942
147.8373614543816
-17.849184151622467
-205.51250284269918
-267.82456617231946
-36.831669452018104
228.1913517563953
574.0128077694098
777.6924977757153
574.0128034524387
228.19141691498226
-36.831684822565876
-267.8245582805248
-293.9454251944553
-38.00553340697661
193.8972331440309
768.0006949751405
957.9745955793187
768.0006540598115
193.8971681863186
-38.00556681083981
-293.9453618560801
-267.8246319433674
-36.831652451946866
228.19133125647204
574.0128168096999
777.6925427472452
574.012866404606
228.19138110781205
-36.831689910497516
-267.8245363206952
-205.51257824181812
-17.849149873189162
147.83740787266288
242.8442468260182
218.41652370907832
242.84429921294213
147.83732758281985
-17.849190948385512
-205.51255652942928
-124.70018529135268
-33.67497684294358
-5.515701240161434
-13.73585476714652
-11.433263654704206
-13.735823107534088
-5.515738516987767
-33.67495753322146
-124.70016927945835
-77.49474512372399
-114.31851200951496
-184.004726697749
-238.35401143220952
-261.5880023154896
-238.354039331869
-184.00474694670993
-114.31848363252357
-77.49466505998134
21.740136098931544
21.740121527924202
21.74017757108595
21.74011068220716
31.896606420865282
57.31614017044194
88.25743739423342
111.23727165337186
120.5911257180851
111.23729500884656
88.25739735842217
57.31616602151189
31.896575163234957
27.57507878378965
44.709810742060654
66.9857303344761
83.75580715207616
90.85343136140727
83.75587863914552
66.98575257198536
44.70978907804238
27.57501482970838
31.896609341551084
57.316189215605846
88.25741137497243
111.2372216777585
120.59116789660766
111.23735383659368
88.25742456584703
57.31623366457643
31.89653092523804
27.575046132085845
44.70980993565172
66.98579111008439
83.75589985656552
90.85344072186854
83.75582877208944
66.98575899773277
44.709753440809436
27.575052851694636
77.44981256639585
114.28462003497407
183.98122432013042
238.35401700495277
261.54208149318583
238.35403012821916
183.98123332025716
114.2846082635806
77.44988148269476
124.63264053629246
33.60431499965489
5.5173126213485375
13.71884330327157
11.665410919231363
13.718871193064842
5.5173366939416155
33.60432411177317
124.63257447700016
205.40512935665902
17.791888302075677
-147.97396371577634
-242.55123070144327
-219.4086908568279
-242.5511638710741
-147.9740000621532
17.791876017523464
205.40515731967753
267.6839913375443
36.581601406272966
-227.97268759214785
-574.1957116712583
-773.4403918841272
-574.1957446273882
-227.9727448631893
36.58160390960984
267.6839367033681
293.69754903996363
38.02671330620069
-196.1654546985519
-763.759995443339
-975.3551353498478
-763.7599154387717
-196.16543896944495
38.02676524600247
293.697520036425
267.68402975803474
36.5815872940002
-227.97268290939974
-574.1957169290981
-773.4404202945298
-574.1958027418586
-227.97270543989725
36.581644307327224
267.68393983104033
205.4051858590683
17.79184204188641
-147.97399416106055
-242.55123102647485
-219.40870972996345
-242.55123685440049
-147.9739339245134
17.79186680680141
205.40516706102062
124.6326373682823
33.60431289789267
5.517340749443974
13.718858238949906
11.66542005352676
13.718822528899182
5.5173334341088776
33.604367389925756
124.63262616019347
77.44986599299591
114.2846666550613
183.98117136897054
238.3540095386561
261.5420174758765
238.35406519216485
183.98120143872802
114.28462266457791
77.4497998792067
-0.00796361907850951
-0.007944660494104028
-0.026375324465334415
-0.04528317123185843
-0.06463207921478897
-0.08569104969501495
-0.09343138861004263
-0.08570540184155107
-0.06466723256744444
-0.04523919243365526
-0.02638842083979398
-0.007952330488478765
-0.012540081923361868
-0.0196882258169353
-0.02690715016797185
-0.033726280147675425
-0.038284828508039936
-0.03371203225106001
-0.026916031318251044
-0.01969503668078687
-0.012575962609844282
-0.007970827864482999
-0.026362615230027586
-0.045239469240186736
-0.06464197766035795
-0.08571059527457692
-0.09342295190435834
-0.0856554644415155
-0.06465839844895527
-0.0452189504285343
-0.026417717977892607
-0.012572968495078385
-0.0196995388250798
-0.026894517242908478
-0.03369690396357328
-0.03826504258904606
-0.03372481232509017
-0.02691315661650151
-0.019720647833310068
-0.012574790278449655
-0.022423504735343158
-0.016923440620303154
-0.011761110159568489
4.510593134909868e-05
-0.02311287831980735
1.6549252904951572e-05
-0.01174688758328557
-0.016917148255743086
-0.022428294294513762
-0.033752723946236074
-0.035333950188942254
0.0008593748789280653
-0.008588568773120642
0.1164734695921652
-0.008592180849518627
0.0008644143235869706
-0.03533531760331243
-0.033765456872060895
-0.05368518934119493
-0.028592711430974305
-0.06844042509328574
0.14691994054010138
-0.4978398474631831
0.14692767948145047
-0.06844546308275312
-0.028596145566552877
-0.05366931133903563
-0.07025372504722327
-0.12517234636470675
0.11001920473063365
-0.09241955779725686
2.130751835007686
-0.09243785322178155
0.11002294096397236
-0.1251788636436686
-0.07027647213544697
-0.12418412405531853
0.011193865037057549
-1.1365158862899989
2.125397291383706
-8.702454776503146
2.1254164365236647
-1.136539999395609
0.01120278867892921
-0.12416765341185965
-0.07026661885902286
-0.12517087848391384
0.11001116875559092
-0.09241777850547805
2.130759853462223
-0.09243543917546049
0.11002436117269099
-0.12516149261500686
-0.07026392620173283
-0.05369192728539929
-0.02859602600801736
-0.06841998011805117
0.1469043807592243
-0.49783874972490594
0.1469274398405105
-0.06842958653578535
-0.028604370570974424
-0.053690768050728366
-0.033764379390049726
-0.035341049486305565
0.0008741027559153736
-0.00858660280937329
0.11645628220867366
-0.00858840940054506
0.0008520389965269715
-0.0353047221142333
-0.03376257927448023
-0.022434732760302722
-0.016913496248889714
-0.011775415507145226
1.8451246432960033e-05
-0.023127052845666185
3.3285352401435375e-05
-0.011770793091272935
-0.0169212949112989
-0.02242796893551713
SCALARS stress33 float
LOOKUP_TABLE default
-41.89899705443531
-41.89887583977543
-41.899042729943176
-41.89897175808437
-55.84101959853433
-90.41988797206432
-135.88961535692215
-170.0868355507264
-184.83009436842985
-170.0869640299352
-135.88968698005192
-90.4197427026229
-55.841010640375316
-55.84094993863255
-90.41967078915332
-135.8895396189764
-170.086837538518
-184.8302783826366
-170.0869390857406
-135.88963356328895
-90.41965160390828
-55.84096853605297
-55.84096688317368
-90.41979879132123
-135.88959773693932
-170.08681042987155
-184.83015254727798
-170.0868615093641
-135.88970504736062
-90.41980823804624
-55.84105042403098
-55.841027116868645
-90.41972641774919
-135.88962365139741
-170.08691812097095
-184.83020605356432
-170.08688385237474
-135.88963540713303
-90.4196917496156
-55.84105926961638
-165.5499796315562
-254.60925314645283
-415.68014618603047
-539.6788239154266
-592.6107627918245
-539.6789863978047
-415.6800964126596
-254.60919635067694
-165.55016072816215
-254.60924656200223
-68.66914847225416
-23.163338219281286
-51.151743251946755
-48.2759985846933
-51.15182588249445
-23.163370864233002
-68.66917549516074
-254.60915500612464
-415.6800818539923
-23.163377089309506
311.42135371628683
495.76974876387976
430.37134809978306
495.7696274033515
311.4214150493499
-23.163366352557205
-415.68007182574365
-539.6788306701928
-51.15176963037811
495.7696487235371
1210.6522519597784
1638.6444082212402
1210.6522420900874
495.7697979855584
-51.15180497674737
-539.6788119554985
-592.610774028115
-48.276090769446455
430.37151067797095
1638.6444587035803
1978.7757748611039
1638.6443636049516
430.37135964329354
-48.276167795818765
-592.6106272561592
-539.6789828611072
-51.151730296667665
495.76959906728007
1210.6522743068635
1638.6445103536826
1210.652388712042
495.7697160830721
-51.15181740303524
-539.678759976232
-415.6802450537216
-23.163285224232823
311.4215222308412
495.7696740778629
430.3713967030635
495.7697961903177
311.4213366374606
-23.163381825899705
-415.68019528256264
-254.60929699684493
-68.66917651402764
-23.163337222184055
-51.15177084505558
-48.27610265859403
-51.151698411908
-23.16342336247908
-68.66913155847578
-254.60925897251582
-165.55015657329932
-254.6093133969698
-415.6800896683708
-539.6789287870051
-592.6106814902159
-539.6789940221352
-415.6801360655809
-254.60924426731071
-165.54997207746783
41.88905378128402
41.889022155082785
41.889152238931274
41.8889949087752
55.82110312883742
90.38373334426433
135.83853461127728
170.02393734594807
184.74545933154877
170.0239949177485
135.8384376326576
90.38379722600803
55.82103230978828
55.8211070378311
90.3838374200277
135.8385255561443
170.02391401759814
184.74553784966702
170.02407949889312
135.83857922186144
90.38378611061489
55.82095757484785
55.821111361685325
90.38384889697772
135.83846556892968
170.0238209865056
184.74555645690998
170.0241278873291
135.83849782135803
90.3839541649213
55.82093041262124
55.82103031326551
90.38383660581894
135.8386692388449
170.02412887418177
184.7455584955169
170.02396130363923
135.83859584433958
90.38370689703152
55.821051015518606
165.55878551094793
254.6155707805883
415.68982314737514
539.7027856102213
592.5173215358518
539.7028149369871
415.6898433138849
254.61554590356536
165.5589475587476
254.6156481115613
68.6670658364892
23.179984797840007
51.06972959660925
48.72562147153076
51.06979216495529
23.180043597589247
68.66708577424288
254.61549457651563
415.68972187826876
23.180076671531424
-311.47932742140256
-495.3828779415926
-432.61993505700957
-495.3827237302903
-311.4794134859694
23.18004937353544
415.6897862664191
539.7027663721237
51.069737543934025
-495.38278494018596
-1212.036016794038
-1629.598630756489
-1212.036091086804
-495.3829176904401
51.069743537926115
539.7026382157346
592.517256641062
48.72569366637617
-432.620081703295
-1629.5986752465833
-2029.3436019902583
-1629.5984881041804
-432.6200455126818
48.72581282310421
592.5171880170819
539.7028554585995
51.06970659410581
-495.38277312298305
-1212.036027489812
-1629.5986950987717
-1212.0362252644845
-495.3828260221053
51.06983818864683
539.7026461552014
415.68985198356677
23.17996914568357
-311.4793990419712
-495.38287810853217
-432.61997748701833
-495.382893149741
-311.47926059452584
23.180027142108884
415.68980862840544
254.61564214224927
68.66706118814182
23.18005554168485
51.06976361258421
48.725642570876516
51.06967933574924
23.180036794103216
68.66718814297928
254.61561566515593
165.5589113261085
254.61568140832242
415.68969940417446
539.7027680051979
592.5171743949177
539.7028977323789
415.6897694962099
254.61557637673104
165.55875751683197
-0.004965153522789478
-0.004920788458548486
-0.00995965045876801
-0.01807958586141467
-0.025551375234499574
-0.03146392444614321
-0.042301071574911475
-0.03149735741317272
-0.0256346050882712
-0.017977560055442154
-0.009990397025831044
-0.004939036938594654
-0.009922506287693977
-0.017921435995958745
-0.025517384288832545
-0.03147718741092831
-0.042352286574896425
-0.03144378022989258
-0.025537953013554215
-0.017938564938958734
-0.010004593539633788
-0.00498241966124624
-0.009930320724379271
-0.017979494819883257
-0.025575614854460582
-0.03150886076036841
-0.04228167166002095
-0.03138143487740308
-0.025614175596274436
-0.017930747708305717
-0.010059294640086591
-0.009999856003560126
-0.017949444125406444
-0.025489052291959524
-0.031409602612257004
-0.04230706603266299
-0.031473933602683246
-0.02553059021010995
-0.01799560710787773
-0.010004661278799176
0.004415606148540974
0.0031669160816818476
0.004848015494644642
0.01202569343149662
-0.04694520402699709
0.011960898526012897
0.004882515291683376
0.0031837986316531897